
     Program PWSCF v.6.3MaX starts on 21Nov2019 at 19:49:55 

     This program is part of the open-source Quantum ESPRESSO suite
     for quantum simulation of materials; please cite
         "P. Giannozzi et al., J. Phys.:Condens. Matter 21 395502 (2009);
         "P. Giannozzi et al., J. Phys.:Condens. Matter 29 465901 (2017);
          URL http://www.quantum-espresso.org", 
     in publications or presentations arising from this work. More details at
     http://www.quantum-espresso.org/quote

     Parallel version (MPI), running on    16 processors

     MPI processes distributed on     2 nodes
     R & G space division:  proc/nbgrp/npool/nimage =      16
     Waiting for input...
     Reading input from standard input

     Current dimensions of program PWSCF are:
     Max number of different atomic species (ntypx) = 10
     Max number of k-points (npk) =  40000
     Max angular momentum in pseudopotentials (lmaxx) =  3
     Message from routine iosys:
     minimal I/O required, wf_collect reset to FALSE

     IMPORTANT: XC functional enforced from input :
     Exchange-correlation      = VDW-DF ( 1  4  4  0 1 0)
     Any further DFT definition will be discarded
     Please, verify this is what you really want


     Subspace diagonalization in iterative solution of the eigenvalue problem:
     one sub-group per band group will be used
     scalapack distributed-memory algorithm (size of sub-group:  2*  2 procs)

 
     Parallelization info
     --------------------
     sticks:   dense  smooth     PW     G-vecs:    dense   smooth      PW
     Min         565     189     51               159513    30701    4383
     Max         566     190     52               159526    30710    4400
     Sum        9055    3037    823              2552337   491295   70261
 


     bravais-lattice index     =            0
     lattice parameter (alat)  =      14.8058  a.u.
     unit-cell volume          =   10282.4791 (a.u.)^3
     number of atoms/cell      =           66
     number of atomic types    =            3
     number of electrons       =      1056.00
     number of Kohn-Sham states=          634
     kinetic-energy cutoff     =      50.0000  Ry
     charge density cutoff     =     600.0000  Ry
     convergence threshold     =      1.0E-08
     mixing beta               =       0.3000
     number of iterations used =            8  plain     mixing
     Exchange-correlation      = VDW-DF ( 1  4  4  0 1 0)

     celldm(1)=  14.805786  celldm(2)=   0.000000  celldm(3)=   0.000000
     celldm(4)=   0.000000  celldm(5)=   0.000000  celldm(6)=   0.000000

     crystal axes: (cart. coord. in units of alat)
               a(1) = (   1.000000   0.000000   0.000000 )  
               a(2) = (   0.500000   0.866025   0.000000 )  
               a(3) = (   0.000000   0.000000   3.658245 )  

     reciprocal axes: (cart. coord. in units 2 pi/alat)
               b(1) = (  1.000000 -0.577350  0.000000 )  
               b(2) = (  0.000000  1.154701  0.000000 )  
               b(3) = (  0.000000  0.000000  0.273355 )  


     PseudoPot. # 1 for Cu read from file:
     /deac/thonhauserGrp/chakrad/calculations/atomandmolecule-qe6.2.1-i2012-C6modif/all_pbe_UPF_v1.5/cu_pbe_v1.2.uspp.F.UPF
     MD5 check sum: 6e991ff952a84172a2a52a1c1e996048
     Pseudo is Ultrasoft + core correction, Zval = 19.0
     Generated by new atomic code, or converted to UPF format
     Using radial grid of  867 points,  6 beta functions with: 
                l(1) =   0
                l(2) =   0
                l(3) =   1
                l(4) =   1
                l(5) =   2
                l(6) =   2
     Q(r) pseudized with  8 coefficients,  rinner =    1.150   1.150   1.150
                                                       1.150   1.150

     PseudoPot. # 2 for C  read from file:
     /deac/thonhauserGrp/chakrad/calculations/atomandmolecule-qe6.2.1-i2012-C6modif/all_pbe_UPF_v1.5/c_pbe_v1.2.uspp.F.UPF
     MD5 check sum: d1aef80898a10debaa0f26306b886e00
     Pseudo is Ultrasoft + core correction, Zval =  4.0
     Generated by new atomic code, or converted to UPF format
     Using radial grid of  721 points,  4 beta functions with: 
                l(1) =   0
                l(2) =   0
                l(3) =   1
                l(4) =   1
     Q(r) pseudized with  8 coefficients,  rinner =    1.100   1.100   1.100


     PseudoPot. # 3 for H  read from file:
     /deac/thonhauserGrp/chakrad/calculations/atomandmolecule-qe6.2.1-i2012-C6modif/all_pbe_UPF_v1.5/h_pbe_v1.4.uspp.F.UPF
     MD5 check sum: 761ae9a214b05c3daf00ab9f6b793d6f
     Pseudo is Ultrasoft, Zval =  1.0
     Generated by new atomic code, or converted to UPF format
     Using radial grid of  615 points,  2 beta functions with: 
                l(1) =   0
                l(2) =   0
     Q(r) pseudized with  8 coefficients,  rinner =    0.700

     vdW kernel table read from file vdW_kernel_table
     MD5 check sum: cc9485f6209b1096fbef62427c856dab

     atomic species   valence    mass     pseudopotential
        Cu            19.00     1.00000     Cu( 1.00)
        C              4.00     1.00000     C ( 1.00)
        H              1.00     1.00000     H ( 1.00)

     No symmetry found



   Cartesian axes

     site n.     atom                  positions (alat units)
         1           Cu  tau(   1) = (   0.1666667   0.0962250   0.2552686  )
         2           Cu  tau(   2) = (   0.5000000   0.0962250   0.2552686  )
         3           Cu  tau(   3) = (   0.8333333   0.0962250   0.2552686  )
         4           Cu  tau(   4) = (   0.3333333   0.3849002   0.2552686  )
         5           Cu  tau(   5) = (   0.6666667   0.3849002   0.2552686  )
         6           Cu  tau(   6) = (   1.0000000   0.3849002   0.2552686  )
         7           Cu  tau(   7) = (   0.5000000   0.6735753   0.2552686  )
         8           Cu  tau(   8) = (   0.8333333   0.6735753   0.2552686  )
         9           Cu  tau(   9) = (   1.1666667   0.6735753   0.2552686  )
        10           Cu  tau(  10) = (   0.0000000   0.1924501   0.5274341  )
        11           Cu  tau(  11) = (   0.3333333   0.1924501   0.5274341  )
        12           Cu  tau(  12) = (   0.6666667   0.1924501   0.5274341  )
        13           Cu  tau(  13) = (   0.1666667   0.4811252   0.5274341  )
        14           Cu  tau(  14) = (   0.5000000   0.4811252   0.5274341  )
        15           Cu  tau(  15) = (   0.8333333   0.4811252   0.5274341  )
        16           Cu  tau(  16) = (   0.3333333   0.7698004   0.5274341  )
        17           Cu  tau(  17) = (   0.6666667   0.7698004   0.5274341  )
        18           Cu  tau(  18) = (   1.0000000   0.7698004   0.5274341  )
        19           Cu  tau(  19) = (   0.0000000   0.0000000   0.7995997  )
        20           Cu  tau(  20) = (   0.3333333   0.0000000   0.7995997  )
        21           Cu  tau(  21) = (   0.6666667   0.0000000   0.7995997  )
        22           Cu  tau(  22) = (   0.1666667   0.2886751   0.7995997  )
        23           Cu  tau(  23) = (   0.5000000   0.2886751   0.7995997  )
        24           Cu  tau(  24) = (   0.8333333   0.2886751   0.7995997  )
        25           Cu  tau(  25) = (   0.3333333   0.5773503   0.7995997  )
        26           Cu  tau(  26) = (   0.6666667   0.5773503   0.7995997  )
        27           Cu  tau(  27) = (   1.0000000   0.5773503   0.7995997  )
        28           Cu  tau(  28) = (   0.1666659   0.0962246   1.0691130  )
        29           Cu  tau(  29) = (   0.5000000   0.0962241   1.0691104  )
        30           Cu  tau(  30) = (   0.8333341   0.0962246   1.0691130  )
        31           Cu  tau(  31) = (   0.3333325   0.3849006   1.0691104  )
        32           Cu  tau(  32) = (   0.6666675   0.3849006   1.0691104  )
        33           Cu  tau(  33) = (   1.0000000   0.3849003   1.0691143  )
        34           Cu  tau(  34) = (   0.5000000   0.6735762   1.0691130  )
        35           Cu  tau(  35) = (   0.8333334   0.6735753   1.0691143  )
        36           Cu  tau(  36) = (   1.1666666   0.6735753   1.0691143  )
        37           Cu  tau(  37) = (   0.0000000   0.1924486   1.3387540  )
        38           Cu  tau(  38) = (   0.3333330   0.1924499   1.3387465  )
        39           Cu  tau(  39) = (   0.6666670   0.1924499   1.3387465  )
        40           Cu  tau(  40) = (   0.1666676   0.4811247   1.3387504  )
        41           Cu  tau(  41) = (   0.5000000   0.4811256   1.3387465  )
        42           Cu  tau(  42) = (   0.8333324   0.4811247   1.3387504  )
        43           Cu  tau(  43) = (   0.3333346   0.7698011   1.3387540  )
        44           Cu  tau(  44) = (   0.6666654   0.7698011   1.3387540  )
        45           Cu  tau(  45) = (   1.0000000   0.7698014   1.3387504  )
        46           Cu  tau(  46) = (   0.0000000   0.0000000   1.6083750  )
        47           Cu  tau(  47) = (   0.3333333   0.0000005   1.6083624  )
        48           Cu  tau(  48) = (   0.6666667   0.0000005   1.6083624  )
        49           Cu  tau(  49) = (   0.1666671   0.2886748   1.6083624  )
        50           Cu  tau(  50) = (   0.5000000   0.2886751   1.6083553  )
        51           Cu  tau(  51) = (   0.8333329   0.2886748   1.6083624  )
        52           Cu  tau(  52) = (   0.3333338   0.5773500   1.6083624  )
        53           Cu  tau(  53) = (   0.6666662   0.5773500   1.6083624  )
        54           Cu  tau(  54) = (   1.0000000   0.5773503   1.6083570  )
        55           C   tau(  55) = (   0.6567407   0.3959883   2.0103660  )
        56           C   tau(  56) = (   0.5046394   0.3028152   2.0103659  )
        57           C   tau(  57) = (   0.3478975   0.3879497   2.0103659  )
        58           C   tau(  58) = (   0.3432593   0.5662630   2.0103660  )
        59           C   tau(  59) = (   0.4953606   0.6594361   2.0103659  )
        60           C   tau(  60) = (   0.6521025   0.5743016   2.0103659  )
        61           H   tau(  61) = (   0.7789959   0.3295665   2.0104442  )
        62           H   tau(  62) = (   0.5082587   0.1637263   2.0104442  )
        63           H   tau(  63) = (   0.2292624   0.3152577   2.0104442  )
        64           H   tau(  64) = (   0.2210041   0.6326847   2.0104442  )
        65           H   tau(  65) = (   0.4917413   0.7985249   2.0104442  )
        66           H   tau(  66) = (   0.7707376   0.6469936   2.0104442  )

     number of k points=    10  gaussian smearing, width (Ry)=  0.0200
                       cart. coord. in units 2pi/alat
        k(    1) = (   0.0000000   0.0000000   0.0000000), wk =   0.1250000
        k(    2) = (   0.0000000   0.2886751   0.0000000), wk =   0.2500000
        k(    3) = (   0.0000000  -0.5773503   0.0000000), wk =   0.1250000
        k(    4) = (   0.2500000  -0.7216878   0.0000000), wk =   0.2500000
        k(    5) = (  -0.2500000   0.1443376   0.0000000), wk =   0.2500000
        k(    6) = (   0.2500000   0.1443376   0.0000000), wk =   0.2500000
        k(    7) = (   0.5000000  -0.2886751   0.0000000), wk =   0.1250000
        k(    8) = (  -0.5000000  -0.2886751   0.0000000), wk =   0.1250000
        k(    9) = (  -0.2500000  -0.7216878   0.0000000), wk =   0.2500000
        k(   10) = (  -0.5000000  -0.5773503   0.0000000), wk =   0.2500000

     Dense  grid:  2552337 G-vectors     FFT dimensions: ( 120, 120, 432)

     Smooth grid:   491295 G-vectors     FFT dimensions: (  72,  72, 243)

     Estimated max dynamical RAM per process >       1.14 GB

     Estimated total dynamical RAM >      18.26 GB

     Initial potential from superposition of free atoms
     Check: negative starting charge=   -0.000784

     starting charge 1001.99960, renormalised to 1056.00000

     negative rho (up, down):  8.258E-04 0.000E+00


     %%%%%%%%%%%%%%%%%%%%%%%%%%%%%%%%%%%%%%%%%%%%%%%%%%%%%%%%%%%%%%%%%%%%%%%%
     %                                                                      %
     % You are using vdW-DF, which was implemented by the Thonhauser group. %
     % Please cite the following two papers that made this development      %
     % possible and the two reviews that describe the various versions:     %
     %                                                                      %
     %   T. Thonhauser et al., PRL 115, 136402 (2015).                      %
     %   T. Thonhauser et al., PRB 76, 125112 (2007).                       %
     %   K. Berland et al., Rep. Prog. Phys. 78, 066501 (2015).             %
     %   D.C. Langreth et al., J. Phys.: Condens. Matter 21, 084203 (2009). %
     %                                                                      %
     %                                                                      %
     % If you are calculating the stress with vdW-DF, please also cite:     %
     %                                                                      %
     %   R. Sabatini et al., J. Phys.: Condens. Matter 24, 424209 (2012).   %
     %                                                                      %
     %%%%%%%%%%%%%%%%%%%%%%%%%%%%%%%%%%%%%%%%%%%%%%%%%%%%%%%%%%%%%%%%%%%%%%%%


     Starting wfcs are  732 randomized atomic wfcs

     total cpu time spent up to now is      105.3 secs

     Self-consistent Calculation

     iteration #  1     ecut=    50.00 Ry     beta= 0.30
     Davidson diagonalization with overlap
     ethr =  1.00E-02,  avg # of iterations =  6.1

     negative rho (up, down):  4.983E-04 0.000E+00

     total cpu time spent up to now is     1446.9 secs

     total energy              =  -18870.77679613 Ry
     Harris-Foulkes estimate   =  -22009.33601551 Ry
     estimated scf accuracy    <    6202.72522345 Ry

     iteration #  2     ecut=    50.00 Ry     beta= 0.30
     Davidson diagonalization with overlap
     c_bands:  3 eigenvalues not converged
     ethr =  1.00E-02,  avg # of iterations = 18.9

     negative rho (up, down):  5.367E-04 0.000E+00

     total cpu time spent up to now is     4348.0 secs

     total energy              =  -19252.44590436 Ry
     Harris-Foulkes estimate   =  -39153.45444937 Ry
     estimated scf accuracy    <  280779.77688978 Ry

     iteration #  3     ecut=    50.00 Ry     beta= 0.30
     Davidson diagonalization with overlap
     ethr =  1.00E-02,  avg # of iterations =  7.7

     negative rho (up, down):  6.105E-04 0.000E+00

     total cpu time spent up to now is     5993.7 secs

     total energy              =  -21606.42244656 Ry
     Harris-Foulkes estimate   =  -23472.42907319 Ry
     estimated scf accuracy    <   51494.28433323 Ry

     iteration #  4     ecut=    50.00 Ry     beta= 0.30
     Davidson diagonalization with overlap
     ethr =  1.00E-02,  avg # of iterations =  8.3

     negative rho (up, down):  8.225E-04 0.000E+00

     total cpu time spent up to now is     7262.9 secs

     total energy              =  -21699.83478014 Ry
     Harris-Foulkes estimate   =  -22131.35951557 Ry
     estimated scf accuracy    <   13214.47788925 Ry

     iteration #  5     ecut=    50.00 Ry     beta= 0.30
     Davidson diagonalization with overlap
     ethr =  1.00E-02,  avg # of iterations =  6.0

     negative rho (up, down):  9.030E-04 0.000E+00

     total cpu time spent up to now is     8631.6 secs

     total energy              =  -21756.41193347 Ry
     Harris-Foulkes estimate   =  -22214.51900783 Ry
     estimated scf accuracy    <    9251.05402459 Ry

     iteration #  6     ecut=    50.00 Ry     beta= 0.30
     Davidson diagonalization with overlap
     ethr =  1.00E-02,  avg # of iterations =  6.1

     negative rho (up, down):  1.056E-03 0.000E+00

     total cpu time spent up to now is     9799.0 secs

     total energy              =  -21894.70584822 Ry
     Harris-Foulkes estimate   =  -21963.29068009 Ry
     estimated scf accuracy    <    1345.18479145 Ry

     iteration #  7     ecut=    50.00 Ry     beta= 0.30
     Davidson diagonalization with overlap
     ethr =  1.00E-02,  avg # of iterations =  2.4

     negative rho (up, down):  1.214E-03 0.000E+00

     total cpu time spent up to now is    10102.7 secs

     total energy              =  -21914.80756203 Ry
     Harris-Foulkes estimate   =  -21933.89127861 Ry
     estimated scf accuracy    <     115.19908658 Ry

     iteration #  8     ecut=    50.00 Ry     beta= 0.30
     Davidson diagonalization with overlap
     ethr =  1.00E-02,  avg # of iterations =  2.2

     negative rho (up, down):  1.331E-03 0.000E+00

     total cpu time spent up to now is    10386.2 secs

     total energy              =  -21915.48158038 Ry
     Harris-Foulkes estimate   =  -21919.56541548 Ry
     estimated scf accuracy    <     134.45840888 Ry

     iteration #  9     ecut=    50.00 Ry     beta= 0.30
     Davidson diagonalization with overlap
     ethr =  1.00E-02,  avg # of iterations =  1.0

     negative rho (up, down):  1.420E-03 0.000E+00

     total cpu time spent up to now is    10628.5 secs

     total energy              =  -21914.45950681 Ry
     Harris-Foulkes estimate   =  -21916.31187473 Ry
     estimated scf accuracy    <      94.24293149 Ry

     iteration # 10     ecut=    50.00 Ry     beta= 0.30
     Davidson diagonalization with overlap
     ethr =  8.92E-03,  avg # of iterations =  1.0

     negative rho (up, down):  1.805E-03 0.000E+00

     total cpu time spent up to now is    10867.5 secs

     total energy              =  -21892.43283425 Ry
     Harris-Foulkes estimate   =  -21914.59499327 Ry
     estimated scf accuracy    <      94.40653375 Ry

     iteration # 11     ecut=    50.00 Ry     beta= 0.30
     Davidson diagonalization with overlap
     ethr =  8.92E-03,  avg # of iterations =  3.4

     negative rho (up, down):  6.831E-04 0.000E+00

     total cpu time spent up to now is    11266.5 secs

     total energy              =  -21902.60449851 Ry
     Harris-Foulkes estimate   =  -21913.07565486 Ry
     estimated scf accuracy    <     150.64071567 Ry

     iteration # 12     ecut=    50.00 Ry     beta= 0.30
     Davidson diagonalization with overlap
     ethr =  8.92E-03,  avg # of iterations =  1.4

     negative rho (up, down):  1.010E-03 0.000E+00

     total cpu time spent up to now is    11516.3 secs

     total energy              =  -21900.96985454 Ry
     Harris-Foulkes estimate   =  -21906.20551625 Ry
     estimated scf accuracy    <      34.06902183 Ry

     iteration # 13     ecut=    50.00 Ry     beta= 0.30
     Davidson diagonalization with overlap
     ethr =  3.23E-03,  avg # of iterations =  3.3

     negative rho (up, down):  1.039E-03 0.000E+00

     total cpu time spent up to now is    11845.3 secs

     total energy              =  -21903.71688959 Ry
     Harris-Foulkes estimate   =  -21904.05433416 Ry
     estimated scf accuracy    <       3.52622376 Ry

     iteration # 14     ecut=    50.00 Ry     beta= 0.30
     Davidson diagonalization with overlap
     ethr =  3.34E-04,  avg # of iterations =  6.7

     negative rho (up, down):  8.850E-04 0.000E+00

     total cpu time spent up to now is    12311.5 secs

     total energy              =  -21903.73988880 Ry
     Harris-Foulkes estimate   =  -21903.96793528 Ry
     estimated scf accuracy    <       1.88430853 Ry

     iteration # 15     ecut=    50.00 Ry     beta= 0.30
     Davidson diagonalization with overlap
     ethr =  1.78E-04,  avg # of iterations =  6.4

     negative rho (up, down):  9.288E-04 0.000E+00

     total cpu time spent up to now is    12713.4 secs

     total energy              =  -21903.78473064 Ry
     Harris-Foulkes estimate   =  -21903.82758260 Ry
     estimated scf accuracy    <       0.40009794 Ry

     iteration # 16     ecut=    50.00 Ry     beta= 0.30
     Davidson diagonalization with overlap
     ethr =  3.79E-05,  avg # of iterations =  5.7

     negative rho (up, down):  9.891E-04 0.000E+00

     total cpu time spent up to now is    13122.3 secs

     total energy              =  -21903.77600177 Ry
     Harris-Foulkes estimate   =  -21903.82375170 Ry
     estimated scf accuracy    <       0.52312941 Ry

     iteration # 17     ecut=    50.00 Ry     beta= 0.30
     Davidson diagonalization with overlap
     ethr =  3.79E-05,  avg # of iterations =  5.1

     negative rho (up, down):  1.139E-03 0.000E+00

     total cpu time spent up to now is    13497.7 secs

     total energy              =  -21903.76051259 Ry
     Harris-Foulkes estimate   =  -21903.79232168 Ry
     estimated scf accuracy    <       0.35787682 Ry

     iteration # 18     ecut=    50.00 Ry     beta= 0.30
     Davidson diagonalization with overlap
     ethr =  3.39E-05,  avg # of iterations =  8.4

     negative rho (up, down):  1.227E-03 0.000E+00

     total cpu time spent up to now is    13987.6 secs

     total energy              =  -21903.76563777 Ry
     Harris-Foulkes estimate   =  -21903.77023239 Ry
     estimated scf accuracy    <       0.16073107 Ry

     iteration # 19     ecut=    50.00 Ry     beta= 0.30
     Davidson diagonalization with overlap
     ethr =  1.52E-05,  avg # of iterations =  2.2

     negative rho (up, down):  1.281E-03 0.000E+00

     total cpu time spent up to now is    14266.5 secs

     total energy              =  -21903.76649676 Ry
     Harris-Foulkes estimate   =  -21903.76866091 Ry
     estimated scf accuracy    <       0.04276422 Ry

     iteration # 20     ecut=    50.00 Ry     beta= 0.30
     Davidson diagonalization with overlap
     ethr =  4.05E-06,  avg # of iterations =  8.0

     negative rho (up, down):  1.654E-03 0.000E+00

     total cpu time spent up to now is    14747.9 secs

     total energy              =  -21903.75525606 Ry
     Harris-Foulkes estimate   =  -21903.76739613 Ry
     estimated scf accuracy    <       0.08707724 Ry

     iteration # 21     ecut=    50.00 Ry     beta= 0.30
     Davidson diagonalization with overlap
     ethr =  4.05E-06,  avg # of iterations =  8.5

     negative rho (up, down):  1.728E-03 0.000E+00

     total cpu time spent up to now is    15314.5 secs

     total energy              =  -21903.75619180 Ry
     Harris-Foulkes estimate   =  -21903.76885423 Ry
     estimated scf accuracy    <       0.22384678 Ry

     iteration # 22     ecut=    50.00 Ry     beta= 0.30
     Davidson diagonalization with overlap
     ethr =  4.05E-06,  avg # of iterations =  5.7

     negative rho (up, down):  1.879E-03 0.000E+00

     total cpu time spent up to now is    15731.7 secs

     total energy              =  -21903.76207973 Ry
     Harris-Foulkes estimate   =  -21903.76289854 Ry
     estimated scf accuracy    <       0.00583511 Ry

     iteration # 23     ecut=    50.00 Ry     beta= 0.30
     Davidson diagonalization with overlap
     ethr =  5.53E-07,  avg # of iterations =  3.8

     negative rho (up, down):  2.035E-03 0.000E+00

     total cpu time spent up to now is    16065.1 secs

     total energy              =  -21903.76241682 Ry
     Harris-Foulkes estimate   =  -21903.76250893 Ry
     estimated scf accuracy    <       0.00053223 Ry

     iteration # 24     ecut=    50.00 Ry     beta= 0.30
     Davidson diagonalization with overlap
     ethr =  5.04E-08,  avg # of iterations =  2.0

     negative rho (up, down):  2.134E-03 0.000E+00

     total cpu time spent up to now is    16350.7 secs

     total energy              =  -21903.76245601 Ry
     Harris-Foulkes estimate   =  -21903.76249687 Ry
     estimated scf accuracy    <       0.00043167 Ry

     iteration # 25     ecut=    50.00 Ry     beta= 0.30
     Davidson diagonalization with overlap
     ethr =  4.09E-08,  avg # of iterations =  1.0

     negative rho (up, down):  2.319E-03 0.000E+00

     total cpu time spent up to now is    16594.1 secs

     total energy              =  -21903.76248666 Ry
     Harris-Foulkes estimate   =  -21903.76248622 Ry
     estimated scf accuracy    <       0.00006867 Ry

     iteration # 26     ecut=    50.00 Ry     beta= 0.30
     Davidson diagonalization with overlap
     ethr =  6.50E-09,  avg # of iterations =  4.2

     negative rho (up, down):  2.356E-03 0.000E+00

     total cpu time spent up to now is    16947.4 secs

     total energy              =  -21903.76249008 Ry
     Harris-Foulkes estimate   =  -21903.76249566 Ry
     estimated scf accuracy    <       0.00003456 Ry

     iteration # 27     ecut=    50.00 Ry     beta= 0.30
     Davidson diagonalization with overlap
     ethr =  3.27E-09,  avg # of iterations =  1.9

     negative rho (up, down):  2.426E-03 0.000E+00

     total cpu time spent up to now is    17196.6 secs

     total energy              =  -21903.76249514 Ry
     Harris-Foulkes estimate   =  -21903.76249587 Ry
     estimated scf accuracy    <       0.00001867 Ry

     iteration # 28     ecut=    50.00 Ry     beta= 0.30
     Davidson diagonalization with overlap
     ethr =  1.77E-09,  avg # of iterations =  2.0

     negative rho (up, down):  2.479E-03 0.000E+00

     total cpu time spent up to now is    17453.9 secs

     total energy              =  -21903.76249663 Ry
     Harris-Foulkes estimate   =  -21903.76249710 Ry
     estimated scf accuracy    <       0.00000697 Ry

     iteration # 29     ecut=    50.00 Ry     beta= 0.30
     Davidson diagonalization with overlap
     ethr =  6.60E-10,  avg # of iterations =  2.0

     negative rho (up, down):  2.510E-03 0.000E+00

     total cpu time spent up to now is    17718.3 secs

     total energy              =  -21903.76249719 Ry
     Harris-Foulkes estimate   =  -21903.76249743 Ry
     estimated scf accuracy    <       0.00000321 Ry

     iteration # 30     ecut=    50.00 Ry     beta= 0.30
     Davidson diagonalization with overlap
     ethr =  3.04E-10,  avg # of iterations =  2.0

     negative rho (up, down):  2.525E-03 0.000E+00

     total cpu time spent up to now is    17985.0 secs

     total energy              =  -21903.76249726 Ry
     Harris-Foulkes estimate   =  -21903.76249749 Ry
     estimated scf accuracy    <       0.00000111 Ry

     iteration # 31     ecut=    50.00 Ry     beta= 0.30
     Davidson diagonalization with overlap
     ethr =  1.05E-10,  avg # of iterations =  2.0

     negative rho (up, down):  2.534E-03 0.000E+00

     total cpu time spent up to now is    18253.6 secs

     total energy              =  -21903.76249708 Ry
     Harris-Foulkes estimate   =  -21903.76249770 Ry
     estimated scf accuracy    <       0.00001579 Ry

     iteration # 32     ecut=    50.00 Ry     beta= 0.30
     Davidson diagonalization with overlap
     ethr =  1.05E-10,  avg # of iterations =  1.1

     negative rho (up, down):  2.543E-03 0.000E+00

     total cpu time spent up to now is    18493.3 secs

     total energy              =  -21903.76249731 Ry
     Harris-Foulkes estimate   =  -21903.76249741 Ry
     estimated scf accuracy    <       0.00000037 Ry

     iteration # 33     ecut=    50.00 Ry     beta= 0.30
     Davidson diagonalization with overlap
     ethr =  3.47E-11,  avg # of iterations =  2.0

     negative rho (up, down):  2.549E-03 0.000E+00

     total cpu time spent up to now is    18771.0 secs

     total energy              =  -21903.76249729 Ry
     Harris-Foulkes estimate   =  -21903.76249735 Ry
     estimated scf accuracy    <       0.00000019 Ry

     iteration # 34     ecut=    50.00 Ry     beta= 0.30
     Davidson diagonalization with overlap
     ethr =  1.80E-11,  avg # of iterations =  2.0

     negative rho (up, down):  2.556E-03 0.000E+00

     total cpu time spent up to now is    19042.4 secs

     total energy              =  -21903.76249723 Ry
     Harris-Foulkes estimate   =  -21903.76249731 Ry
     estimated scf accuracy    <       0.00000009 Ry

     iteration # 35     ecut=    50.00 Ry     beta= 0.30
     Davidson diagonalization with overlap
     ethr =  8.09E-12,  avg # of iterations =  2.0

     negative rho (up, down):  2.558E-03 0.000E+00

     total cpu time spent up to now is    19319.6 secs

     total energy              =  -21903.76249722 Ry
     Harris-Foulkes estimate   =  -21903.76249724 Ry
     estimated scf accuracy    <       0.00000004 Ry

     iteration # 36     ecut=    50.00 Ry     beta= 0.30
     Davidson diagonalization with overlap
     ethr =  3.55E-12,  avg # of iterations =  2.0

     negative rho (up, down):  2.560E-03 0.000E+00

     total cpu time spent up to now is    19589.8 secs

     total energy              =  -21903.76249720 Ry
     Harris-Foulkes estimate   =  -21903.76249722 Ry
     estimated scf accuracy    <       0.00000001 Ry

     iteration # 37     ecut=    50.00 Ry     beta= 0.30
     Davidson diagonalization with overlap
     ethr =  1.01E-12,  avg # of iterations =  2.0

     negative rho (up, down):  2.561E-03 0.000E+00

     total cpu time spent up to now is    19870.7 secs

     End of self-consistent calculation

          k = 0.0000 0.0000 0.0000 ( 61453 PWs)   bands (ev):

  -107.7712-107.7673-107.7625-107.7625-107.7620-107.7615-107.7615-107.7615
  -107.7601-107.7588-107.7588-107.7583-107.7583-107.7576-107.7576-107.7574
  -107.7569-107.7567-107.7535-107.7535-107.7532-107.7517-107.7517-107.7506
  -107.7486-107.7486-107.7478-107.7456-107.7444-107.7428-107.7428-107.7427
  -107.7427-107.7415-107.7404-107.7385-107.5602-107.5572-107.5572-107.5500
  -107.5476-107.5476-107.5397-107.5374-107.5374-107.5084-107.5035-107.5035
  -107.5035-107.5030-107.5030-107.5030-107.5006-107.5006 -65.2232 -65.2118
   -65.2096 -65.2096 -65.2090 -65.2090 -65.2080 -65.2028 -65.2025 -65.2025
   -65.2014 -65.2014 -65.2006 -65.2005 -65.2005 -65.1980 -65.1976 -65.1976
   -65.1972 -65.1959 -65.1913 -65.1913 -65.1901 -65.1888 -65.1884 -65.1884
   -65.1871 -65.1871 -65.1871 -65.1865 -65.1865 -65.1853 -65.1853 -65.1850
   -65.1833 -65.1829 -65.1829 -65.1824 -65.1781 -65.1781 -65.1778 -65.1768
   -65.1765 -65.1765 -65.1760 -65.1760 -65.1729 -65.1724 -65.1724 -65.1700
   -65.1697 -65.1693 -65.1693 -65.1692 -65.1692 -65.1686 -65.1642 -65.1623
   -65.1623 -65.1614 -65.1614 -65.1607 -65.1604 -65.1604 -65.1598 -65.1596
   -65.1596 -65.1592 -65.1580 -65.1574 -65.1574 -65.1570 -65.1570 -65.1546
   -65.1546 -65.1515 -65.1514 -65.1513 -65.1513 -65.1509 -65.1509 -65.1499
   -65.1499 -65.1496 -65.1488 -65.1488 -65.1487 -65.1464 -65.1448 -65.1448
   -65.1446 -65.1436 -65.1436 -65.1436 -65.1428 -65.1428 -65.1374 -65.1374
   -65.1366 -65.1366 -65.1366 -65.1357 -65.1354 -65.1354 -65.1320 -65.1320
   -65.1252 -65.1252 -65.0113 -65.0112 -65.0110 -65.0035 -65.0023 -65.0022
   -65.0022 -64.9988 -64.9988 -64.9921 -64.9738 -64.9692 -64.9692 -64.9670
   -64.9670 -64.9630 -64.9627 -64.9627 -64.9626 -64.9625 -64.9623 -64.9623
   -64.9600 -64.9600 -64.9598 -64.9594 -64.9530 -64.9530 -64.9417 -64.9391
   -64.9390 -64.9289 -64.9275 -64.9275 -64.9273 -64.9273 -64.9273 -64.9267
   -64.9267 -64.9266 -64.9173 -64.9152 -64.9152 -64.9151 -64.9151 -64.8803
   -64.8757 -64.8757 -64.8757 -64.8751 -64.8751 -64.8751 -64.8729 -64.8729
   -12.8893 -10.1352 -10.1350  -6.5332  -6.5327  -4.6055  -4.0345  -3.4178
    -2.9970  -2.6247  -2.4770  -1.9663  -1.9662  -1.3920  -1.0734  -1.0689
    -1.0689  -1.0685  -1.0685  -1.0685  -0.8725  -0.6673  -0.6673  -0.6658
    -0.6658  -0.6655  -0.6518  -0.4142  -0.1701  -0.1701  -0.1690  -0.1684
    -0.1684  -0.1662  -0.1480  -0.0273  -0.0271   0.2789   0.2789   0.2845
     0.2862   0.2862   0.2911   0.6281   0.6281   0.6343   0.6347   0.6347
     0.6385   0.7603   0.7603   0.7616   0.7622   0.7622   0.7634   0.8095
     0.8095   0.8108   0.8108   0.8110   0.8122   0.8410   0.8410   0.8549
     0.8549   0.8635   0.8636   0.9594   0.9596   0.9697   0.9697   0.9820
     0.9820   0.9847   0.9868   0.9868   0.9885   0.9998   0.9998   1.0009
     1.0010   1.0420   1.0420   1.0934   1.0934   1.1870   1.1870   1.1949
     1.1949   1.1981   1.1988   1.1988   1.2011   1.2379   1.2379   1.4177
     1.4177   1.4350   1.4350   1.4358   1.4376   1.5655   1.5655   1.5722
     1.5722   1.5788   1.5788   1.5902   1.5902   1.5911   1.5924   1.6298
     1.6300   1.6326   1.6500   1.6784   1.6785   1.7039   1.7039   1.7047
     1.7049   1.7163   1.7164   1.7379   1.7379   1.7449   1.7449   1.7725
     1.7814   1.7814   1.7890   1.7890   1.7890   1.7912   1.8178   1.8178
     1.8310   1.8310   1.8417   1.8423   1.8423   1.8430   1.8571   1.8572
     1.8629   1.8631   1.8631   1.8641   1.8644   1.8644   1.8702   1.8702
     1.8827   1.9650   1.9650   1.9815   1.9831   1.9877   1.9877   1.9901
     1.9923   2.0099   2.0099   2.0194   2.0194   2.0417   2.0419   2.0481
     2.0481   2.0633   2.0633   2.0636   2.0642   2.0642   2.0647   2.0654
     2.0654   2.2478   2.2478   2.2486   2.2539   2.2940   2.2940   2.3197
     2.3202   2.3202   2.3218   2.3218   2.3218   2.3740   2.3740   2.3779
     2.3802   2.4005   2.4005   2.4031   2.4031   2.4241   2.4241   2.4261
     2.4262   2.4789   2.4920   2.4920   2.5190   2.5190   2.5199   2.5199
     2.5214   2.5292   2.5389   2.5389   2.5480   2.5480   2.5503   2.5518
     2.5518   2.5523   2.5523   2.5524   2.5605   2.5605   2.6256   2.6256
     2.6917   2.6920   2.6920   2.6929   2.6931   2.6931   2.7462   2.7472
     2.7472   2.7491   2.7526   2.7526   2.7526   2.7533   2.7535   2.7535
     2.7587   2.7587   2.8106   2.8106   2.8193   2.8200   2.8200   2.8210
     2.8210   2.8213   2.8320   2.8321   2.8321   2.8328   2.8330   2.8330
     2.8547   2.8547   2.8547   2.8552   2.8555   2.8555   2.8754   2.8754
     2.8994   2.8994   2.9120   2.9149   2.9149   2.9172   2.9172   2.9186
     2.9293   2.9295   2.9495   2.9498   2.9498   2.9506   2.9506   2.9511
     2.9761   2.9761   2.9773   2.9773   2.9852   2.9852   3.0038   3.0041
     3.0137   3.0139   3.0140   3.0157   3.0157   3.0162   3.0390   3.0390
     3.0401   3.0451   3.0451   3.0501   3.0937   3.0937   3.0944   3.0955
     3.0955   3.0963   3.0963   3.0963   3.9294   4.0146   4.0147   4.0198
     4.0626   4.0808   4.0809   4.5514   5.4282   5.4283   5.4477   5.4878
     5.5258   5.5258   6.9015   6.9016   7.0146   7.2051   7.3145   7.3445
     7.3445   7.4387   7.4388   7.8904   7.8904   7.8909   7.8912   7.9075
     7.9075   8.1866   8.2815   8.2815   8.3048   8.3048   8.4554   8.6879
     8.6918   8.8018   8.8899   8.8899   8.9460   8.9471   9.0180   9.1324
     9.1324   9.3366   9.4484   9.5726   9.5726   9.5829   9.5829   9.8486
     9.8488   9.8887   9.9548   9.9579  10.5553  10.5862  10.6985  10.6985
    10.7507  10.7507  10.8847  10.8848  10.9460  10.9460  11.0093  11.0238
    11.0239  11.1436  11.2097  11.3462  11.3462  11.3975  11.3975  11.4220
    11.5250  11.6237  11.6237  11.7875  11.8402  11.8402  11.8818  11.8818
    11.9393  11.9634  11.9634  11.9842  11.9843  12.0401  12.1400  12.2326
    12.2326  12.2674  12.3087  12.3710  12.3711  12.5170  12.5170  12.7673
    12.8720  12.8804  12.8805  13.0249  13.0250  13.0486  13.0526  13.0800
    13.1644  13.1755

          k = 0.0000 0.2887 0.0000 ( 61417 PWs)   bands (ev):

  -107.7711-107.7670-107.7638-107.7630-107.7621-107.7615-107.7608-107.7606
  -107.7598-107.7591-107.7591-107.7583-107.7582-107.7578-107.7576-107.7570
  -107.7569-107.7565-107.7544-107.7536-107.7531-107.7515-107.7515-107.7504
  -107.7487-107.7486-107.7475-107.7456-107.7448-107.7435-107.7433-107.7422
  -107.7420-107.7412-107.7406-107.7386-107.5601-107.5573-107.5572-107.5501
  -107.5476-107.5475-107.5397-107.5374-107.5373-107.5079-107.5050-107.5039
  -107.5038-107.5025-107.5024-107.5019-107.5008-107.5008 -65.2218 -65.2134
   -65.2120 -65.2110 -65.2101 -65.2097 -65.2090 -65.2085 -65.2062 -65.2059
   -65.2047 -65.2045 -65.2032 -65.2029 -65.1986 -65.1979 -65.1972 -65.1956
   -65.1945 -65.1939 -65.1932 -65.1930 -65.1928 -65.1923 -65.1908 -65.1908
   -65.1901 -65.1892 -65.1857 -65.1856 -65.1834 -65.1827 -65.1827 -65.1816
   -65.1814 -65.1805 -65.1801 -65.1794 -65.1778 -65.1776 -65.1756 -65.1755
   -65.1732 -65.1721 -65.1719 -65.1715 -65.1708 -65.1707 -65.1696 -65.1690
   -65.1681 -65.1675 -65.1667 -65.1661 -65.1658 -65.1649 -65.1643 -65.1641
   -65.1631 -65.1623 -65.1618 -65.1618 -65.1613 -65.1609 -65.1607 -65.1588
   -65.1582 -65.1569 -65.1567 -65.1559 -65.1556 -65.1548 -65.1544 -65.1541
   -65.1538 -65.1532 -65.1531 -65.1525 -65.1521 -65.1520 -65.1519 -65.1508
   -65.1505 -65.1493 -65.1489 -65.1480 -65.1475 -65.1473 -65.1468 -65.1466
   -65.1463 -65.1459 -65.1441 -65.1434 -65.1432 -65.1407 -65.1401 -65.1400
   -65.1400 -65.1388 -65.1380 -65.1364 -65.1363 -65.1356 -65.1331 -65.1324
   -65.1293 -65.1261 -65.0181 -65.0145 -65.0140 -65.0079 -65.0050 -64.9979
   -64.9969 -64.9921 -64.9917 -64.9847 -64.9762 -64.9741 -64.9718 -64.9702
   -64.9686 -64.9684 -64.9682 -64.9674 -64.9672 -64.9660 -64.9626 -64.9566
   -64.9555 -64.9553 -64.9539 -64.9498 -64.9496 -64.9468 -64.9416 -64.9391
   -64.9390 -64.9314 -64.9312 -64.9302 -64.9290 -64.9273 -64.9271 -64.9267
   -64.9266 -64.9232 -64.9193 -64.9174 -64.9161 -64.9152 -64.9151 -64.8798
   -64.8771 -64.8761 -64.8759 -64.8747 -64.8746 -64.8741 -64.8731 -64.8731
   -12.8885 -10.1387 -10.1357  -6.5359  -6.5286  -4.5786  -3.8211  -3.2092
    -2.9695  -2.6283  -2.2793  -2.2190  -2.0144  -1.9740  -1.6735  -1.5081
    -1.5066  -1.2251  -1.0325  -1.0250  -0.9093  -0.7760  -0.4506  -0.4502
    -0.3654  -0.3587  -0.2665  -0.2392  -0.1665  -0.1651  -0.0733  -0.0303
    -0.0290   0.0051   0.0098   0.1056   0.1094   0.1095   0.2799   0.2899
     0.3142   0.3797   0.3803   0.5606   0.5699   0.6018   0.6019   0.6221
     0.6380   0.6380   0.6585   0.6595   0.7018   0.7075   0.7091   0.7104
     0.7212   0.7217   0.7632   0.7633   0.7985   0.7986   0.8284   0.8286
     0.8312   0.8794   0.8812   0.8948   0.8949   0.9152   0.9159   0.9281
     0.9283   0.9569   0.9576   1.0040   1.0714   1.0715   1.0733   1.1006
     1.1006   1.1120   1.1141   1.1462   1.1468   1.1850   1.1871   1.1873
     1.2538   1.2539   1.2670   1.2763   1.2966   1.2979   1.3423   1.3439
     1.3558   1.3770   1.3786   1.3841   1.4089   1.4539   1.4577   1.4695
     1.4712   1.4826   1.5027   1.5171   1.5335   1.5517   1.5539   1.5636
     1.5847   1.5867   1.6138   1.6526   1.6667   1.6762   1.6822   1.6853
     1.6902   1.6981   1.7059   1.7247   1.7413   1.7452   1.7504   1.7606
     1.7634   1.7698   1.7792   1.7881   1.7922   1.7968   1.8060   1.8149
     1.8268   1.8346   1.8350   1.8427   1.8473   1.8597   1.8614   1.8663
     1.8689   1.8720   1.8765   1.8797   1.8970   1.9001   1.9080   1.9175
     1.9219   1.9324   1.9336   1.9494   1.9543   1.9620   1.9626   1.9828
     1.9898   1.9917   2.0053   2.0133   2.0135   2.0161   2.0242   2.0294
     2.0440   2.0517   2.0793   2.0828   2.0978   2.0985   2.1001   2.1014
     2.1130   2.1264   2.1283   2.1412   2.1552   2.1565   2.1645   2.1799
     2.2037   2.2078   2.2377   2.2476   2.2520   2.2528   2.2607   2.2627
     2.3126   2.3316   2.3560   2.3567   2.3629   2.3644   2.3787   2.3795
     2.4086   2.4096   2.4206   2.4215   2.4246   2.4274   2.4513   2.4528
     2.4880   2.4929   2.4975   2.4985   2.5057   2.5305   2.5337   2.5365
     2.5374   2.5410   2.5709   2.5834   2.5872   2.5907   2.5928   2.6082
     2.6136   2.6142   2.6320   2.6338   2.6363   2.6365   2.6470   2.6509
     2.6692   2.6774   2.7206   2.7266   2.7297   2.7563   2.7587   2.7686
     2.7718   2.7730   2.7735   2.7771   2.7928   2.7946   2.7954   2.8083
     2.8114   2.8136   2.8168   2.8328   2.8560   2.8635   2.8636   2.8660
     2.8767   2.8783   2.8945   2.8973   2.9046   2.9062   2.9529   2.9532
     2.9543   2.9553   2.9555   2.9668   2.9753   2.9764   2.9785   2.9839
     2.9869   2.9873   2.9932   2.9935   2.9986   3.0030   3.0109   3.0128
     3.0308   3.0416   3.0419   3.0429   3.0449   3.0488   3.0498   3.0505
     3.0728   3.0811   3.0929   3.0944   3.0980   3.0996   3.1118   3.1141
     3.1688   3.2041   3.2540   3.3310   3.3575   3.3581   3.4449   3.5178
     3.5182   3.7709   3.8172   3.8231   3.8288   3.8605   4.1335   4.3592
     4.5288   4.7920   4.7976   5.0236   5.1123   5.1263   5.1541   5.8862
     5.8869   6.1059   6.2140   6.2603   6.2814   6.2819   6.5068   6.7279
     6.8224   6.9132   6.9578   7.1398   7.1779   7.3402   7.5110   7.7826
     7.8139   7.8281   7.9924   8.0787   8.2720   8.2891   8.2906   8.4207
     8.4536   8.7399   8.7557   8.7562   8.8940   8.9676   9.2999   9.3046
     9.3157   9.4458   9.5703   9.6912   9.8106   9.8272   9.9157   9.9705
    10.0276  10.0449  10.0833  10.1700  10.2665  10.4202  10.4552  10.4632
    10.5460  10.5665  10.6173  10.6964  10.7301  10.7949  10.8096  10.9061
    10.9313  10.9830  10.9981  11.0360  11.1053  11.2673  11.4571  11.4693
    11.5191  11.5261  11.5948  11.6443  11.7285  11.7792  11.9173  11.9612
    12.0661  12.1801  12.2397  12.3231  12.3735  12.4181  12.4861  12.4949
    12.5517  12.6047  12.6801  12.7304  12.8253  12.8400  12.8904  12.8944
    12.9750  13.0517  13.1353  13.1529  13.2062  13.2562  13.2954  13.4023
    13.4221  13.4276

          k = 0.0000-0.5774 0.0000 ( 61408 PWs)   bands (ev):

  -107.7710-107.7664-107.7650-107.7632-107.7623-107.7611-107.7604-107.7601
  -107.7598-107.7591-107.7588-107.7587-107.7586-107.7579-107.7574-107.7570
  -107.7564-107.7563-107.7552-107.7537-107.7532-107.7513-107.7512-107.7504
  -107.7488-107.7486-107.7470-107.7456-107.7455-107.7437-107.7435-107.7420
  -107.7412-107.7412-107.7410-107.7386-107.5600-107.5574-107.5572-107.5502
  -107.5476-107.5474-107.5398-107.5374-107.5373-107.5069-107.5065-107.5042
  -107.5041-107.5018-107.5018-107.5015-107.5012-107.5012 -65.2187 -65.2173
   -65.2150 -65.2137 -65.2107 -65.2099 -65.2089 -65.2086 -65.2075 -65.2074
   -65.2069 -65.2067 -65.2063 -65.2055 -65.2025 -65.1975 -65.1958 -65.1958
   -65.1955 -65.1951 -65.1945 -65.1943 -65.1938 -65.1938 -65.1916 -65.1910
   -65.1905 -65.1897 -65.1845 -65.1835 -65.1829 -65.1826 -65.1820 -65.1813
   -65.1803 -65.1771 -65.1767 -65.1752 -65.1735 -65.1733 -65.1732 -65.1728
   -65.1724 -65.1712 -65.1704 -65.1704 -65.1698 -65.1687 -65.1686 -65.1676
   -65.1660 -65.1658 -65.1655 -65.1653 -65.1652 -65.1647 -65.1635 -65.1629
   -65.1611 -65.1602 -65.1598 -65.1594 -65.1590 -65.1585 -65.1585 -65.1585
   -65.1583 -65.1581 -65.1577 -65.1565 -65.1554 -65.1554 -65.1548 -65.1542
   -65.1539 -65.1537 -65.1523 -65.1516 -65.1512 -65.1511 -65.1510 -65.1503
   -65.1499 -65.1498 -65.1485 -65.1483 -65.1481 -65.1476 -65.1475 -65.1474
   -65.1467 -65.1465 -65.1463 -65.1439 -65.1438 -65.1434 -65.1432 -65.1427
   -65.1403 -65.1403 -65.1396 -65.1395 -65.1378 -65.1371 -65.1364 -65.1356
   -65.1293 -65.1283 -65.0218 -65.0165 -65.0160 -65.0102 -65.0073 -64.9945
   -64.9933 -64.9857 -64.9826 -64.9802 -64.9788 -64.9783 -64.9752 -64.9711
   -64.9707 -64.9705 -64.9703 -64.9701 -64.9694 -64.9662 -64.9623 -64.9618
   -64.9549 -64.9519 -64.9516 -64.9415 -64.9395 -64.9394 -64.9393 -64.9392
   -64.9390 -64.9390 -64.9313 -64.9311 -64.9308 -64.9290 -64.9283 -64.9281
   -64.9267 -64.9265 -64.9193 -64.9190 -64.9174 -64.9152 -64.9151 -64.8788
   -64.8785 -64.8763 -64.8762 -64.8741 -64.8741 -64.8738 -64.8734 -64.8734
   -12.8877 -10.1422 -10.1365  -6.5392  -6.5239  -4.5510  -3.1960  -3.1956
    -2.9415  -2.6321  -2.6038  -2.6014  -2.0694  -1.9818  -1.7194  -1.6851
    -1.6630  -1.6621  -1.1669  -1.1546  -0.9457  -0.6322  -0.5422  -0.4365
    -0.4148  -0.1101  -0.0499  -0.0291   0.1256   0.1342   0.1537   0.1538
     0.1542   0.1552   0.1569   0.2405   0.3058   0.3179   0.3210   0.3304
     0.3329   0.3518   0.3520   0.3524   0.3526   0.4064   0.4066   0.4073
     0.4073   0.5355   0.5696   0.5696   0.5717   0.5717   0.6020   0.6505
     0.7499   0.7500   0.7505   0.7508   0.7597   0.7815   0.7881   0.7995
     0.7998   0.8023   0.8025   0.9232   0.9234   0.9243   0.9244   0.9453
     0.9475   1.0301   1.0399   1.0405   1.0437   1.0440   1.0842   1.0845
     1.1274   1.1277   1.1907   1.1914   1.1950   1.1954   1.2574   1.2581
     1.2881   1.2908   1.3002   1.3010   1.3065   1.3077   1.3285   1.3290
     1.3437   1.3645   1.4082   1.4269   1.4300   1.4543   1.4572   1.4621
     1.4751   1.4820   1.4841   1.4859   1.4859   1.5304   1.5407   1.5438
     1.5442   1.5454   1.5466   1.5839   1.5875   1.6032   1.6163   1.6214
     1.6221   1.6276   1.6276   1.6287   1.6353   1.6809   1.7010   1.7190
     1.7195   1.7205   1.7336   1.7569   1.7667   1.7700   1.7705   1.7714
     1.7726   1.7842   1.7949   1.8338   1.8359   1.8396   1.8422   1.8523
     1.8533   1.8731   1.8858   1.8873   1.8902   1.9102   1.9118   1.9129
     1.9171   1.9177   1.9196   1.9408   1.9417   1.9486   1.9608   1.9721
     1.9746   1.9971   2.0083   2.0093   2.0652   2.0665   2.0756   2.0769
     2.0774   2.0778   2.0817   2.0826   2.0859   2.0962   2.0970   2.0978
     2.1090   2.1202   2.1206   2.1272   2.1273   2.1323   2.1343   2.2012
     2.2073   2.2088   2.2175   2.2847   2.2856   2.2881   2.2883   2.2900
     2.2907   2.2923   2.3036   2.3048   2.3070   2.3205   2.3319   2.3497
     2.3649   2.3650   2.3669   2.3719   2.3873   2.3902   2.3904   2.3914
     2.3925   2.4022   2.4141   2.4157   2.4185   2.4281   2.4285   2.5106
     2.5228   2.5459   2.5469   2.5732   2.5736   2.5750   2.5760   2.6050
     2.6052   2.6122   2.6266   2.6429   2.6463   2.6500   2.6518   2.6641
     2.6714   2.6871   2.6878   2.6886   2.6892   2.6977   2.7019   2.7192
     2.7212   2.7239   2.7307   2.7758   2.7759   2.7785   2.7791   2.7899
     2.7906   2.8102   2.8126   2.8394   2.8409   2.8503   2.8531   2.8750
     2.8751   2.8967   2.9018   2.9097   2.9208   2.9579   2.9594   2.9783
     2.9796   2.9817   2.9823   3.0020   3.0121   3.0122   3.0147   3.0155
     3.0177   3.0209   3.0396   3.0419   3.0423   3.0424   3.0429   3.0586
     3.0599   3.0618   3.0751   3.0770   3.0911   3.0939   3.1054   3.1057
     3.1067   3.1126   3.1178   3.1359   3.1468   3.1591   3.1596   3.1614
     3.1615   3.2463   3.2838   3.7878   3.8232   3.8301   3.8458   4.3213
     4.3706   4.3711   4.3713   4.3717   4.6354   4.6380   4.6395   4.6401
     4.9685   4.9874   5.0256   5.1176   5.1787   5.1790   5.1979   5.2018
     5.2083   5.4783   5.8151   6.0682   6.0884   6.1134   6.1374   6.1733
     6.1765   6.2020   6.2355   6.6141   6.7153   7.0166   7.1208   7.4784
     7.4846   7.4884   7.6774   7.8709   7.9790   8.2423   8.3498   8.4296
     8.6069   8.6148   8.6171   8.6526   8.9181   8.9589   8.9837   9.2000
     9.2567   9.2628   9.2768   9.2799   9.4499   9.6029   9.6276   9.7718
     9.8280   9.9191   9.9317   9.9341   9.9709  10.2810  10.3001  10.3873
    10.4259  10.4599  10.5454  10.5636  10.5878  10.8087  10.8593  11.0286
    11.0352  11.1372  11.2633  11.2869  11.3385  11.3958  11.4787  11.4887
    11.5780  11.6453  11.7397  12.0308  12.1387  12.1501  12.3012  12.3116
    12.3233  12.3468  12.4171  12.5917  12.7141  12.7996  12.8842  12.9521
    13.0098  13.0336  13.0813  13.1335  13.1686  13.2489  13.2689  13.2727
    13.3180  13.3265  13.3318  13.3830  13.5688  13.6351  13.7246  13.7275
    13.7998  13.8595

          k = 0.2500-0.7217 0.0000 ( 61343 PWs)   bands (ev):

  -107.7710-107.7664-107.7646-107.7641-107.7613-107.7611-107.7607-107.7600
  -107.7599-107.7595-107.7589-107.7586-107.7583-107.7577-107.7575-107.7571
  -107.7565-107.7563-107.7549-107.7543-107.7528-107.7513-107.7512-107.7504
  -107.7488-107.7485-107.7470-107.7456-107.7452-107.7444-107.7430-107.7419
  -107.7416-107.7411-107.7409-107.7386-107.5600-107.5574-107.5573-107.5502
  -107.5476-107.5474-107.5398-107.5374-107.5373-107.5071-107.5057-107.5054
  -107.5028-107.5025-107.5017-107.5016-107.5012-107.5010 -65.2193 -65.2153
   -65.2138 -65.2134 -65.2124 -65.2121 -65.2114 -65.2100 -65.2087 -65.2068
   -65.2064 -65.2055 -65.2028 -65.2014 -65.2006 -65.2000 -65.1999 -65.1975
   -65.1963 -65.1942 -65.1939 -65.1936 -65.1931 -65.1920 -65.1914 -65.1909
   -65.1899 -65.1893 -65.1872 -65.1862 -65.1833 -65.1815 -65.1811 -65.1802
   -65.1781 -65.1777 -65.1772 -65.1765 -65.1762 -65.1741 -65.1731 -65.1727
   -65.1723 -65.1714 -65.1707 -65.1703 -65.1687 -65.1674 -65.1669 -65.1664
   -65.1662 -65.1660 -65.1658 -65.1648 -65.1643 -65.1638 -65.1629 -65.1628
   -65.1621 -65.1611 -65.1605 -65.1604 -65.1603 -65.1596 -65.1583 -65.1575
   -65.1572 -65.1567 -65.1562 -65.1561 -65.1556 -65.1552 -65.1547 -65.1544
   -65.1542 -65.1536 -65.1530 -65.1524 -65.1521 -65.1513 -65.1511 -65.1504
   -65.1495 -65.1494 -65.1492 -65.1489 -65.1485 -65.1483 -65.1483 -65.1479
   -65.1465 -65.1456 -65.1455 -65.1440 -65.1433 -65.1429 -65.1427 -65.1423
   -65.1419 -65.1416 -65.1397 -65.1388 -65.1385 -65.1377 -65.1342 -65.1323
   -65.1320 -65.1283 -65.0206 -65.0188 -65.0166 -65.0079 -65.0048 -65.0017
   -64.9877 -64.9869 -64.9834 -64.9797 -64.9780 -64.9761 -64.9759 -64.9738
   -64.9732 -64.9730 -64.9709 -64.9666 -64.9662 -64.9630 -64.9628 -64.9625
   -64.9595 -64.9556 -64.9432 -64.9415 -64.9411 -64.9403 -64.9402 -64.9392
   -64.9391 -64.9346 -64.9344 -64.9337 -64.9335 -64.9290 -64.9271 -64.9266
   -64.9265 -64.9225 -64.9224 -64.9184 -64.9174 -64.9152 -64.9151 -64.8791
   -64.8777 -64.8774 -64.8751 -64.8746 -64.8740 -64.8739 -64.8734 -64.8732
   -12.8877 -10.1408 -10.1379  -6.5353  -6.5278  -4.5512  -3.4013  -2.9413
    -2.8009  -2.6319  -2.5957  -2.5950  -2.0653  -2.0420  -2.0170  -1.9841
    -1.8808  -1.2155  -1.1665  -0.9435  -0.6883  -0.5840  -0.5824  -0.2367
    -0.2345  -0.2039  -0.1687  -0.0829  -0.0503   0.0073   0.0076   0.0191
     0.1789   0.1813   0.2020   0.2023   0.2183   0.2682   0.2790   0.2793
     0.2974   0.3963   0.3986   0.4008   0.4014   0.4677   0.4781   0.5373
     0.5404   0.5511   0.5623   0.5916   0.5917   0.5935   0.6113   0.6131
     0.6715   0.6732   0.7058   0.7067   0.7361   0.7362   0.7646   0.7716
     0.7730   0.8342   0.8349   0.8652   0.8852   0.9009   0.9016   0.9693
     0.9764   1.0265   1.0459   1.0470   1.0698   1.0713   1.1314   1.1390
     1.1419   1.1580   1.1585   1.1673   1.2094   1.2344   1.2361   1.2794
     1.2806   1.3011   1.3059   1.3079   1.3117   1.3297   1.3302   1.3811
     1.3858   1.3897   1.3919   1.3968   1.4063   1.4265   1.4281   1.4341
     1.4391   1.4606   1.4658   1.4829   1.4880   1.4909   1.5081   1.5383
     1.5706   1.5717   1.5825   1.5861   1.5869   1.6086   1.6182   1.6335
     1.6359   1.6581   1.6714   1.6780   1.6791   1.6869   1.7065   1.7147
     1.7230   1.7316   1.7406   1.7427   1.7464   1.7780   1.7844   1.7864
     1.7874   1.7991   1.8084   1.8178   1.8194   1.8332   1.8361   1.8459
     1.8490   1.8716   1.8844   1.8985   1.9024   1.9120   1.9187   1.9239
     1.9266   1.9327   1.9405   1.9445   1.9446   1.9520   1.9584   1.9588
     1.9713   1.9800   1.9900   1.9929   2.0119   2.0206   2.0288   2.0330
     2.0466   2.0480   2.0501   2.0508   2.0537   2.0559   2.0586   2.0640
     2.0656   2.0790   2.1292   2.1309   2.1903   2.1915   2.1923   2.1981
     2.2020   2.2063   2.2247   2.2257   2.2494   2.2589   2.2616   2.2724
     2.2907   2.2924   2.3298   2.3305   2.3341   2.3630   2.3643   2.3645
     2.3659   2.3668   2.3690   2.3712   2.3750   2.3843   2.4020   2.4037
     2.4452   2.4460   2.4523   2.4529   2.4596   2.4656   2.4744   2.4964
     2.5018   2.5063   2.5184   2.5377   2.5405   2.5595   2.5687   2.5695
     2.5810   2.5851   2.6128   2.6193   2.6244   2.6316   2.6547   2.6576
     2.6769   2.6815   2.6815   2.7002   2.7042   2.7224   2.7265   2.7289
     2.7303   2.7357   2.7420   2.7442   2.7503   2.7575   2.7699   2.7878
     2.8177   2.8189   2.8204   2.8298   2.8708   2.8719   2.8850   2.8914
     2.9165   2.9282   2.9308   2.9370   2.9381   2.9447   2.9510   2.9806
     2.9833   2.9836   2.9906   2.9923   3.0007   3.0040   3.0059   3.0071
     3.0118   3.0141   3.0154   3.0169   3.0206   3.0329   3.0351   3.0472
     3.0485   3.0595   3.0599   3.0653   3.0725   3.0870   3.0929   3.0999
     3.1010   3.1175   3.1415   3.1431   3.1595   3.1796   3.1808   3.3410
     3.3551   3.4484   3.4488   3.5465   3.5483   3.6684   3.8697   3.8778
     4.2585   4.2882   4.3565   4.3580   4.3732   4.6320   4.7312   4.7533
     4.7631   4.7635   4.9268   5.2033   5.2317   5.2342   5.6845   5.7158
     5.7502   5.8511   5.9684   5.9797   5.9813   6.1173   6.1315   6.2003
     6.2854   6.6378   6.7052   6.7186   6.8840   6.9892   7.0278   7.0795
     7.1035   7.1818   7.2247   7.4326   7.6523   7.7457   7.9541   7.9875
     8.4586   8.5390   8.5423   8.6450   8.7503   8.9429   9.1620   9.1687
     9.2313   9.3321   9.3638   9.4968   9.5238   9.6274   9.7133   9.7470
     9.8132   9.9708  10.0221  10.1272  10.1860  10.3792  10.4243  10.4750
    10.5291  10.6346  10.7685  10.8635  10.9128  11.0233  11.0963  11.2022
    11.2170  11.2606  11.4619  11.5275  11.5398  11.6085  11.6227  11.7171
    11.7564  11.8568  11.8955  11.9254  11.9838  12.0927  12.1235  12.1874
    12.3009  12.3926  12.4623  12.4737  12.5604  12.6094  12.6203  12.6719
    12.7187  12.7885  12.8358  12.8550  12.9492  13.0567  13.1703  13.1784
    13.3139  13.3317  13.3855  13.4372  13.4972  13.5531  13.5853  13.6537
    13.7042  13.7173

          k =-0.2500 0.1443 0.0000 ( 61417 PWs)   bands (ev):

  -107.7711-107.7670-107.7638-107.7630-107.7621-107.7615-107.7608-107.7606
  -107.7598-107.7591-107.7591-107.7583-107.7583-107.7578-107.7576-107.7570
  -107.7569-107.7565-107.7544-107.7536-107.7531-107.7515-107.7515-107.7504
  -107.7487-107.7486-107.7475-107.7456-107.7448-107.7435-107.7433-107.7422
  -107.7420-107.7412-107.7406-107.7386-107.5601-107.5573-107.5572-107.5501
  -107.5476-107.5475-107.5397-107.5374-107.5373-107.5079-107.5050-107.5039
  -107.5038-107.5025-107.5024-107.5019-107.5008-107.5008 -65.2218 -65.2134
   -65.2120 -65.2110 -65.2101 -65.2098 -65.2090 -65.2085 -65.2061 -65.2059
   -65.2047 -65.2045 -65.2032 -65.2029 -65.1986 -65.1979 -65.1972 -65.1956
   -65.1945 -65.1939 -65.1932 -65.1930 -65.1928 -65.1923 -65.1908 -65.1908
   -65.1901 -65.1892 -65.1857 -65.1856 -65.1834 -65.1827 -65.1827 -65.1816
   -65.1814 -65.1805 -65.1801 -65.1794 -65.1778 -65.1776 -65.1756 -65.1755
   -65.1732 -65.1721 -65.1719 -65.1715 -65.1708 -65.1707 -65.1696 -65.1690
   -65.1681 -65.1675 -65.1667 -65.1661 -65.1658 -65.1649 -65.1643 -65.1641
   -65.1631 -65.1624 -65.1618 -65.1618 -65.1613 -65.1609 -65.1607 -65.1588
   -65.1582 -65.1569 -65.1567 -65.1559 -65.1556 -65.1548 -65.1544 -65.1541
   -65.1538 -65.1532 -65.1531 -65.1525 -65.1521 -65.1520 -65.1519 -65.1508
   -65.1505 -65.1493 -65.1489 -65.1480 -65.1475 -65.1473 -65.1468 -65.1466
   -65.1463 -65.1459 -65.1441 -65.1434 -65.1432 -65.1407 -65.1401 -65.1400
   -65.1400 -65.1388 -65.1380 -65.1364 -65.1363 -65.1356 -65.1331 -65.1324
   -65.1293 -65.1261 -65.0181 -65.0145 -65.0140 -65.0079 -65.0050 -64.9979
   -64.9969 -64.9921 -64.9917 -64.9846 -64.9762 -64.9741 -64.9718 -64.9702
   -64.9686 -64.9684 -64.9682 -64.9674 -64.9672 -64.9660 -64.9626 -64.9566
   -64.9555 -64.9553 -64.9539 -64.9498 -64.9496 -64.9468 -64.9416 -64.9391
   -64.9390 -64.9314 -64.9312 -64.9302 -64.9290 -64.9273 -64.9271 -64.9266
   -64.9266 -64.9232 -64.9193 -64.9174 -64.9161 -64.9152 -64.9151 -64.8798
   -64.8771 -64.8761 -64.8759 -64.8747 -64.8746 -64.8741 -64.8731 -64.8731
   -12.8885 -10.1385 -10.1359  -6.5364  -6.5281  -4.5786  -3.8211  -3.2092
    -2.9695  -2.6283  -2.2793  -2.2190  -2.0143  -1.9741  -1.6735  -1.5081
    -1.5066  -1.2251  -1.0325  -1.0250  -0.9093  -0.7760  -0.4506  -0.4502
    -0.3654  -0.3587  -0.2665  -0.2392  -0.1665  -0.1651  -0.0731  -0.0303
    -0.0292   0.0051   0.0098   0.1056   0.1094   0.1095   0.2799   0.2899
     0.3142   0.3797   0.3803   0.5606   0.5699   0.6018   0.6019   0.6221
     0.6380   0.6380   0.6585   0.6595   0.7018   0.7075   0.7091   0.7104
     0.7212   0.7217   0.7632   0.7633   0.7985   0.7986   0.8284   0.8286
     0.8312   0.8794   0.8812   0.8948   0.8949   0.9152   0.9159   0.9281
     0.9283   0.9569   0.9576   1.0040   1.0714   1.0715   1.0733   1.1006
     1.1006   1.1120   1.1141   1.1462   1.1468   1.1850   1.1871   1.1873
     1.2538   1.2539   1.2670   1.2763   1.2966   1.2979   1.3423   1.3439
     1.3558   1.3770   1.3786   1.3841   1.4089   1.4539   1.4577   1.4695
     1.4712   1.4826   1.5027   1.5171   1.5335   1.5517   1.5539   1.5636
     1.5847   1.5867   1.6138   1.6526   1.6667   1.6762   1.6822   1.6853
     1.6902   1.6981   1.7059   1.7248   1.7413   1.7452   1.7504   1.7606
     1.7634   1.7698   1.7792   1.7881   1.7922   1.7968   1.8060   1.8149
     1.8268   1.8346   1.8350   1.8427   1.8473   1.8597   1.8614   1.8663
     1.8689   1.8720   1.8765   1.8797   1.8970   1.9001   1.9080   1.9175
     1.9219   1.9324   1.9336   1.9494   1.9543   1.9620   1.9626   1.9828
     1.9898   1.9917   2.0053   2.0133   2.0135   2.0161   2.0242   2.0295
     2.0440   2.0517   2.0793   2.0828   2.0978   2.0985   2.1001   2.1014
     2.1130   2.1264   2.1283   2.1412   2.1552   2.1565   2.1645   2.1799
     2.2037   2.2078   2.2377   2.2476   2.2520   2.2528   2.2607   2.2627
     2.3126   2.3316   2.3560   2.3567   2.3629   2.3644   2.3787   2.3795
     2.4086   2.4096   2.4206   2.4215   2.4246   2.4274   2.4513   2.4528
     2.4880   2.4929   2.4975   2.4985   2.5057   2.5305   2.5337   2.5365
     2.5374   2.5410   2.5709   2.5834   2.5872   2.5907   2.5928   2.6082
     2.6136   2.6142   2.6320   2.6338   2.6363   2.6365   2.6470   2.6509
     2.6692   2.6774   2.7206   2.7266   2.7297   2.7563   2.7587   2.7686
     2.7718   2.7730   2.7735   2.7771   2.7927   2.7946   2.7954   2.8083
     2.8114   2.8136   2.8168   2.8328   2.8560   2.8635   2.8636   2.8660
     2.8767   2.8783   2.8945   2.8973   2.9046   2.9062   2.9529   2.9532
     2.9543   2.9553   2.9555   2.9668   2.9753   2.9764   2.9785   2.9839
     2.9869   2.9873   2.9932   2.9935   2.9986   3.0030   3.0109   3.0128
     3.0308   3.0416   3.0419   3.0429   3.0449   3.0488   3.0498   3.0505
     3.0728   3.0811   3.0929   3.0944   3.0980   3.0996   3.1118   3.1141
     3.1688   3.2041   3.2540   3.3310   3.3575   3.3581   3.4449   3.5178
     3.5182   3.7709   3.8172   3.8231   3.8288   3.8605   4.1335   4.3592
     4.5288   4.7920   4.7976   5.0236   5.1123   5.1263   5.1541   5.8862
     5.8869   6.1059   6.2140   6.2603   6.2814   6.2819   6.5068   6.7279
     6.8224   6.9132   6.9578   7.1397   7.1780   7.3402   7.5110   7.7826
     7.8139   7.8281   7.9924   8.0787   8.2720   8.2891   8.2905   8.4207
     8.4536   8.7400   8.7557   8.7562   8.8940   8.9674   9.2999   9.3046
     9.3157   9.4458   9.5704   9.6912   9.8106   9.8272   9.9157   9.9705
    10.0276  10.0449  10.0833  10.1700  10.2665  10.4202  10.4552  10.4632
    10.5460  10.5665  10.6173  10.6964  10.7301  10.7948  10.8096  10.9061
    10.9313  10.9830  10.9981  11.0360  11.1053  11.2674  11.4571  11.4693
    11.5191  11.5261  11.5948  11.6443  11.7285  11.7792  11.9173  11.9612
    12.0661  12.1801  12.2397  12.3231  12.3735  12.4181  12.4861  12.4949
    12.5517  12.6047  12.6801  12.7304  12.8253  12.8401  12.8904  12.8944
    12.9750  13.0517  13.1353  13.1530  13.2062  13.2562  13.2954  13.4023
    13.4221  13.4276

          k = 0.2500 0.1443 0.0000 ( 61417 PWs)   bands (ev):

  -107.7711-107.7670-107.7638-107.7630-107.7621-107.7615-107.7608-107.7606
  -107.7598-107.7591-107.7591-107.7583-107.7583-107.7578-107.7576-107.7570
  -107.7569-107.7565-107.7544-107.7536-107.7531-107.7515-107.7515-107.7504
  -107.7487-107.7486-107.7475-107.7456-107.7448-107.7435-107.7433-107.7422
  -107.7420-107.7412-107.7406-107.7386-107.5601-107.5573-107.5572-107.5501
  -107.5476-107.5475-107.5397-107.5374-107.5373-107.5079-107.5050-107.5039
  -107.5038-107.5025-107.5024-107.5019-107.5008-107.5008 -65.2218 -65.2134
   -65.2120 -65.2110 -65.2101 -65.2097 -65.2090 -65.2085 -65.2062 -65.2059
   -65.2047 -65.2045 -65.2032 -65.2029 -65.1986 -65.1979 -65.1972 -65.1956
   -65.1945 -65.1939 -65.1932 -65.1930 -65.1928 -65.1923 -65.1908 -65.1908
   -65.1901 -65.1892 -65.1857 -65.1856 -65.1834 -65.1827 -65.1827 -65.1817
   -65.1814 -65.1805 -65.1801 -65.1794 -65.1778 -65.1776 -65.1756 -65.1755
   -65.1732 -65.1721 -65.1719 -65.1715 -65.1708 -65.1707 -65.1696 -65.1690
   -65.1681 -65.1675 -65.1667 -65.1661 -65.1658 -65.1649 -65.1643 -65.1641
   -65.1631 -65.1623 -65.1618 -65.1618 -65.1613 -65.1609 -65.1607 -65.1588
   -65.1582 -65.1569 -65.1567 -65.1559 -65.1556 -65.1548 -65.1544 -65.1541
   -65.1538 -65.1532 -65.1531 -65.1525 -65.1521 -65.1520 -65.1519 -65.1508
   -65.1505 -65.1493 -65.1489 -65.1480 -65.1475 -65.1473 -65.1468 -65.1466
   -65.1463 -65.1459 -65.1441 -65.1434 -65.1432 -65.1407 -65.1401 -65.1400
   -65.1400 -65.1388 -65.1380 -65.1364 -65.1363 -65.1356 -65.1331 -65.1324
   -65.1293 -65.1261 -65.0181 -65.0145 -65.0140 -65.0079 -65.0050 -64.9979
   -64.9969 -64.9921 -64.9917 -64.9846 -64.9762 -64.9741 -64.9718 -64.9702
   -64.9686 -64.9684 -64.9682 -64.9674 -64.9672 -64.9660 -64.9626 -64.9566
   -64.9555 -64.9553 -64.9539 -64.9498 -64.9496 -64.9468 -64.9416 -64.9391
   -64.9390 -64.9314 -64.9312 -64.9302 -64.9290 -64.9273 -64.9271 -64.9266
   -64.9266 -64.9232 -64.9193 -64.9174 -64.9161 -64.9152 -64.9151 -64.8798
   -64.8771 -64.8761 -64.8759 -64.8747 -64.8746 -64.8741 -64.8731 -64.8731
   -12.8885 -10.1386 -10.1359  -6.5363  -6.5282  -4.5786  -3.8211  -3.2092
    -2.9695  -2.6283  -2.2793  -2.2190  -2.0144  -1.9740  -1.6735  -1.5081
    -1.5066  -1.2251  -1.0325  -1.0250  -0.9093  -0.7760  -0.4506  -0.4502
    -0.3654  -0.3587  -0.2665  -0.2392  -0.1665  -0.1651  -0.0732  -0.0303
    -0.0291   0.0051   0.0098   0.1056   0.1094   0.1095   0.2799   0.2899
     0.3142   0.3797   0.3803   0.5606   0.5699   0.6018   0.6019   0.6221
     0.6380   0.6380   0.6585   0.6595   0.7018   0.7075   0.7091   0.7104
     0.7212   0.7217   0.7632   0.7633   0.7985   0.7986   0.8284   0.8286
     0.8312   0.8794   0.8812   0.8948   0.8949   0.9152   0.9159   0.9281
     0.9283   0.9569   0.9576   1.0040   1.0714   1.0715   1.0733   1.1006
     1.1006   1.1120   1.1141   1.1462   1.1468   1.1850   1.1871   1.1873
     1.2538   1.2539   1.2670   1.2763   1.2966   1.2979   1.3423   1.3439
     1.3558   1.3770   1.3786   1.3841   1.4089   1.4539   1.4577   1.4695
     1.4712   1.4826   1.5027   1.5171   1.5335   1.5517   1.5539   1.5636
     1.5847   1.5867   1.6138   1.6526   1.6667   1.6762   1.6822   1.6853
     1.6902   1.6981   1.7059   1.7248   1.7413   1.7452   1.7504   1.7606
     1.7634   1.7698   1.7792   1.7881   1.7922   1.7968   1.8060   1.8149
     1.8268   1.8346   1.8350   1.8427   1.8473   1.8597   1.8614   1.8663
     1.8689   1.8720   1.8765   1.8797   1.8970   1.9001   1.9080   1.9175
     1.9219   1.9324   1.9336   1.9494   1.9543   1.9620   1.9626   1.9828
     1.9898   1.9917   2.0053   2.0133   2.0135   2.0161   2.0242   2.0295
     2.0440   2.0517   2.0793   2.0828   2.0978   2.0985   2.1001   2.1014
     2.1130   2.1264   2.1283   2.1412   2.1552   2.1565   2.1645   2.1799
     2.2037   2.2078   2.2377   2.2476   2.2520   2.2528   2.2607   2.2627
     2.3126   2.3316   2.3560   2.3567   2.3629   2.3644   2.3787   2.3795
     2.4086   2.4096   2.4206   2.4215   2.4246   2.4274   2.4513   2.4528
     2.4880   2.4929   2.4975   2.4985   2.5057   2.5305   2.5337   2.5365
     2.5374   2.5410   2.5709   2.5834   2.5872   2.5907   2.5928   2.6082
     2.6136   2.6142   2.6320   2.6338   2.6363   2.6365   2.6470   2.6509
     2.6692   2.6774   2.7206   2.7266   2.7297   2.7563   2.7587   2.7686
     2.7718   2.7730   2.7735   2.7771   2.7927   2.7946   2.7954   2.8083
     2.8114   2.8136   2.8168   2.8328   2.8560   2.8635   2.8636   2.8660
     2.8767   2.8783   2.8945   2.8973   2.9046   2.9062   2.9529   2.9532
     2.9543   2.9553   2.9555   2.9668   2.9753   2.9764   2.9785   2.9839
     2.9869   2.9873   2.9932   2.9935   2.9986   3.0030   3.0109   3.0128
     3.0308   3.0416   3.0418   3.0429   3.0449   3.0488   3.0498   3.0505
     3.0728   3.0811   3.0929   3.0944   3.0980   3.0996   3.1118   3.1141
     3.1688   3.2041   3.2540   3.3310   3.3575   3.3581   3.4449   3.5178
     3.5182   3.7709   3.8172   3.8231   3.8288   3.8605   4.1335   4.3592
     4.5288   4.7920   4.7976   5.0236   5.1123   5.1263   5.1541   5.8862
     5.8869   6.1059   6.2140   6.2603   6.2814   6.2819   6.5068   6.7279
     6.8224   6.9132   6.9578   7.1398   7.1780   7.3402   7.5110   7.7826
     7.8139   7.8281   7.9924   8.0787   8.2720   8.2891   8.2905   8.4207
     8.4536   8.7400   8.7557   8.7562   8.8940   8.9675   9.2999   9.3046
     9.3157   9.4458   9.5703   9.6912   9.8106   9.8272   9.9157   9.9705
    10.0276  10.0449  10.0833  10.1700  10.2665  10.4202  10.4552  10.4632
    10.5460  10.5665  10.6173  10.6964  10.7301  10.7948  10.8096  10.9061
    10.9313  10.9830  10.9981  11.0360  11.1053  11.2674  11.4571  11.4693
    11.5191  11.5261  11.5948  11.6443  11.7285  11.7792  11.9173  11.9612
    12.0661  12.1801  12.2397  12.3231  12.3735  12.4181  12.4861  12.4949
    12.5517  12.6047  12.6801  12.7304  12.8253  12.8401  12.8904  12.8944
    12.9750  13.0517  13.1353  13.1529  13.2062  13.2562  13.2954  13.4023
    13.4221  13.4276

          k = 0.5000-0.2887 0.0000 ( 61408 PWs)   bands (ev):

  -107.7710-107.7664-107.7650-107.7632-107.7623-107.7611-107.7604-107.7601
  -107.7598-107.7591-107.7588-107.7587-107.7586-107.7579-107.7574-107.7570
  -107.7564-107.7563-107.7553-107.7537-107.7532-107.7513-107.7512-107.7504
  -107.7488-107.7486-107.7470-107.7456-107.7455-107.7437-107.7435-107.7420
  -107.7412-107.7412-107.7410-107.7386-107.5600-107.5574-107.5573-107.5502
  -107.5476-107.5474-107.5398-107.5374-107.5373-107.5069-107.5065-107.5042
  -107.5041-107.5018-107.5018-107.5015-107.5012-107.5012 -65.2187 -65.2173
   -65.2150 -65.2137 -65.2107 -65.2099 -65.2089 -65.2086 -65.2075 -65.2073
   -65.2069 -65.2067 -65.2063 -65.2055 -65.2025 -65.1975 -65.1958 -65.1958
   -65.1955 -65.1951 -65.1945 -65.1943 -65.1938 -65.1938 -65.1916 -65.1910
   -65.1905 -65.1897 -65.1845 -65.1835 -65.1829 -65.1826 -65.1820 -65.1813
   -65.1803 -65.1771 -65.1767 -65.1752 -65.1735 -65.1733 -65.1732 -65.1728
   -65.1724 -65.1712 -65.1704 -65.1704 -65.1698 -65.1687 -65.1686 -65.1676
   -65.1660 -65.1658 -65.1655 -65.1653 -65.1652 -65.1647 -65.1635 -65.1629
   -65.1611 -65.1602 -65.1598 -65.1594 -65.1590 -65.1585 -65.1585 -65.1585
   -65.1583 -65.1581 -65.1577 -65.1565 -65.1554 -65.1554 -65.1548 -65.1542
   -65.1539 -65.1537 -65.1523 -65.1516 -65.1512 -65.1511 -65.1510 -65.1503
   -65.1499 -65.1498 -65.1485 -65.1483 -65.1481 -65.1476 -65.1475 -65.1474
   -65.1467 -65.1465 -65.1463 -65.1439 -65.1438 -65.1434 -65.1432 -65.1427
   -65.1403 -65.1403 -65.1396 -65.1395 -65.1378 -65.1371 -65.1364 -65.1356
   -65.1293 -65.1283 -65.0218 -65.0165 -65.0160 -65.0102 -65.0073 -64.9945
   -64.9933 -64.9857 -64.9826 -64.9802 -64.9788 -64.9783 -64.9752 -64.9711
   -64.9707 -64.9705 -64.9703 -64.9701 -64.9694 -64.9663 -64.9623 -64.9618
   -64.9549 -64.9519 -64.9516 -64.9415 -64.9395 -64.9394 -64.9393 -64.9392
   -64.9391 -64.9390 -64.9313 -64.9311 -64.9308 -64.9290 -64.9283 -64.9281
   -64.9266 -64.9266 -64.9193 -64.9190 -64.9174 -64.9152 -64.9151 -64.8788
   -64.8785 -64.8763 -64.8762 -64.8741 -64.8741 -64.8738 -64.8734 -64.8734
   -12.8877 -10.1420 -10.1367  -6.5396  -6.5235  -4.5510  -3.1960  -3.1956
    -2.9415  -2.6321  -2.6038  -2.6014  -2.0694  -1.9819  -1.7194  -1.6851
    -1.6630  -1.6621  -1.1669  -1.1546  -0.9457  -0.6322  -0.5422  -0.4365
    -0.4148  -0.1099  -0.0499  -0.0293   0.1256   0.1342   0.1537   0.1538
     0.1542   0.1552   0.1569   0.2405   0.3058   0.3179   0.3211   0.3304
     0.3329   0.3518   0.3520   0.3524   0.3526   0.4064   0.4066   0.4073
     0.4073   0.5355   0.5696   0.5696   0.5717   0.5717   0.6020   0.6505
     0.7499   0.7500   0.7505   0.7508   0.7597   0.7815   0.7881   0.7995
     0.7998   0.8023   0.8025   0.9232   0.9234   0.9243   0.9244   0.9453
     0.9475   1.0301   1.0399   1.0405   1.0437   1.0440   1.0842   1.0845
     1.1274   1.1277   1.1907   1.1914   1.1950   1.1954   1.2574   1.2581
     1.2881   1.2908   1.3002   1.3010   1.3065   1.3077   1.3285   1.3290
     1.3437   1.3645   1.4082   1.4269   1.4300   1.4543   1.4572   1.4621
     1.4751   1.4820   1.4841   1.4859   1.4859   1.5304   1.5407   1.5438
     1.5442   1.5454   1.5466   1.5838   1.5875   1.6032   1.6162   1.6214
     1.6221   1.6276   1.6276   1.6287   1.6353   1.6809   1.7011   1.7190
     1.7195   1.7205   1.7336   1.7570   1.7667   1.7700   1.7705   1.7714
     1.7726   1.7842   1.7949   1.8338   1.8359   1.8396   1.8422   1.8522
     1.8533   1.8731   1.8858   1.8873   1.8902   1.9101   1.9118   1.9129
     1.9171   1.9177   1.9196   1.9408   1.9417   1.9486   1.9608   1.9721
     1.9746   1.9971   2.0083   2.0093   2.0652   2.0665   2.0756   2.0769
     2.0774   2.0778   2.0817   2.0826   2.0859   2.0962   2.0970   2.0978
     2.1090   2.1202   2.1206   2.1272   2.1273   2.1323   2.1343   2.2012
     2.2073   2.2088   2.2175   2.2847   2.2856   2.2881   2.2883   2.2900
     2.2907   2.2923   2.3036   2.3048   2.3070   2.3205   2.3319   2.3497
     2.3649   2.3650   2.3669   2.3719   2.3873   2.3902   2.3904   2.3914
     2.3925   2.4022   2.4141   2.4157   2.4185   2.4281   2.4285   2.5106
     2.5228   2.5459   2.5469   2.5732   2.5736   2.5750   2.5760   2.6050
     2.6052   2.6122   2.6266   2.6429   2.6463   2.6500   2.6518   2.6641
     2.6714   2.6871   2.6878   2.6886   2.6892   2.6977   2.7019   2.7192
     2.7212   2.7239   2.7307   2.7758   2.7759   2.7785   2.7791   2.7899
     2.7906   2.8102   2.8126   2.8394   2.8409   2.8503   2.8531   2.8750
     2.8751   2.8967   2.9018   2.9097   2.9208   2.9579   2.9594   2.9783
     2.9796   2.9817   2.9823   3.0020   3.0121   3.0122   3.0147   3.0155
     3.0177   3.0209   3.0396   3.0419   3.0423   3.0424   3.0429   3.0586
     3.0599   3.0618   3.0751   3.0770   3.0911   3.0939   3.1054   3.1057
     3.1067   3.1126   3.1178   3.1359   3.1468   3.1591   3.1596   3.1613
     3.1615   3.2463   3.2838   3.7878   3.8233   3.8301   3.8458   4.3213
     4.3706   4.3711   4.3713   4.3717   4.6354   4.6380   4.6395   4.6401
     4.9685   4.9874   5.0256   5.1176   5.1787   5.1790   5.1979   5.2018
     5.2083   5.4783   5.8151   6.0682   6.0884   6.1134   6.1374   6.1733
     6.1765   6.2020   6.2355   6.6141   6.7153   7.0168   7.1207   7.4784
     7.4846   7.4884   7.6774   7.8710   7.9788   8.2423   8.3498   8.4295
     8.6069   8.6148   8.6171   8.6526   8.9181   8.9589   8.9837   9.1999
     9.2567   9.2628   9.2768   9.2799   9.4500   9.6030   9.6276   9.7718
     9.8280   9.9191   9.9317   9.9341   9.9709  10.2810  10.3001  10.3873
    10.4259  10.4599  10.5454  10.5636  10.5878  10.8087  10.8592  11.0287
    11.0352  11.1372  11.2633  11.2869  11.3385  11.3958  11.4787  11.4887
    11.5780  11.6453  11.7397  12.0307  12.1387  12.1501  12.3012  12.3117
    12.3234  12.3468  12.4174  12.5916  12.7143  12.7995  12.8841  12.9521
    13.0098  13.0334  13.0813  13.1335  13.1686  13.2488  13.2689  13.2727
    13.3180  13.3265  13.3318  13.3830  13.5689  13.6351  13.7246  13.7275
    13.7998  13.8597

          k =-0.5000-0.2887 0.0000 ( 61408 PWs)   bands (ev):

  -107.7710-107.7664-107.7650-107.7632-107.7623-107.7611-107.7604-107.7601
  -107.7598-107.7591-107.7588-107.7587-107.7586-107.7579-107.7574-107.7570
  -107.7564-107.7563-107.7552-107.7537-107.7532-107.7513-107.7512-107.7504
  -107.7488-107.7486-107.7470-107.7456-107.7455-107.7437-107.7435-107.7420
  -107.7412-107.7412-107.7410-107.7386-107.5600-107.5574-107.5573-107.5502
  -107.5476-107.5474-107.5398-107.5374-107.5373-107.5069-107.5065-107.5041
  -107.5041-107.5019-107.5018-107.5015-107.5012-107.5012 -65.2187 -65.2173
   -65.2150 -65.2137 -65.2107 -65.2099 -65.2089 -65.2086 -65.2075 -65.2073
   -65.2069 -65.2067 -65.2063 -65.2055 -65.2025 -65.1975 -65.1958 -65.1958
   -65.1955 -65.1951 -65.1945 -65.1943 -65.1938 -65.1938 -65.1916 -65.1910
   -65.1905 -65.1897 -65.1845 -65.1835 -65.1829 -65.1826 -65.1820 -65.1813
   -65.1803 -65.1771 -65.1767 -65.1752 -65.1735 -65.1733 -65.1732 -65.1728
   -65.1724 -65.1712 -65.1704 -65.1704 -65.1698 -65.1687 -65.1686 -65.1676
   -65.1660 -65.1658 -65.1655 -65.1653 -65.1652 -65.1647 -65.1635 -65.1629
   -65.1611 -65.1602 -65.1598 -65.1594 -65.1590 -65.1585 -65.1585 -65.1585
   -65.1583 -65.1581 -65.1577 -65.1565 -65.1554 -65.1554 -65.1548 -65.1542
   -65.1539 -65.1537 -65.1523 -65.1516 -65.1512 -65.1511 -65.1510 -65.1503
   -65.1499 -65.1498 -65.1485 -65.1483 -65.1481 -65.1476 -65.1475 -65.1474
   -65.1467 -65.1465 -65.1463 -65.1439 -65.1438 -65.1434 -65.1432 -65.1427
   -65.1403 -65.1403 -65.1396 -65.1395 -65.1378 -65.1371 -65.1364 -65.1356
   -65.1293 -65.1283 -65.0218 -65.0165 -65.0160 -65.0102 -65.0073 -64.9945
   -64.9933 -64.9857 -64.9826 -64.9802 -64.9788 -64.9783 -64.9752 -64.9711
   -64.9707 -64.9705 -64.9703 -64.9701 -64.9694 -64.9663 -64.9623 -64.9618
   -64.9549 -64.9519 -64.9516 -64.9415 -64.9395 -64.9394 -64.9393 -64.9392
   -64.9391 -64.9390 -64.9313 -64.9311 -64.9308 -64.9290 -64.9283 -64.9281
   -64.9266 -64.9266 -64.9193 -64.9190 -64.9174 -64.9152 -64.9151 -64.8788
   -64.8785 -64.8763 -64.8762 -64.8741 -64.8741 -64.8738 -64.8734 -64.8734
   -12.8877 -10.1420 -10.1367  -6.5395  -6.5235  -4.5510  -3.1960  -3.1956
    -2.9415  -2.6321  -2.6038  -2.6014  -2.0694  -1.9818  -1.7194  -1.6851
    -1.6630  -1.6621  -1.1669  -1.1546  -0.9457  -0.6322  -0.5422  -0.4365
    -0.4148  -0.1100  -0.0499  -0.0292   0.1256   0.1342   0.1537   0.1538
     0.1542   0.1552   0.1569   0.2405   0.3058   0.3179   0.3211   0.3304
     0.3329   0.3518   0.3520   0.3524   0.3526   0.4064   0.4066   0.4073
     0.4073   0.5355   0.5696   0.5696   0.5717   0.5717   0.6020   0.6505
     0.7499   0.7500   0.7505   0.7508   0.7597   0.7815   0.7881   0.7995
     0.7998   0.8023   0.8025   0.9232   0.9234   0.9243   0.9244   0.9453
     0.9475   1.0301   1.0399   1.0405   1.0437   1.0440   1.0842   1.0845
     1.1274   1.1277   1.1907   1.1914   1.1950   1.1954   1.2574   1.2581
     1.2881   1.2908   1.3002   1.3010   1.3065   1.3077   1.3285   1.3290
     1.3437   1.3645   1.4082   1.4269   1.4300   1.4543   1.4572   1.4621
     1.4751   1.4820   1.4841   1.4859   1.4859   1.5304   1.5407   1.5438
     1.5442   1.5454   1.5466   1.5838   1.5875   1.6032   1.6162   1.6214
     1.6221   1.6276   1.6276   1.6287   1.6353   1.6809   1.7011   1.7190
     1.7195   1.7205   1.7336   1.7570   1.7667   1.7700   1.7705   1.7714
     1.7726   1.7842   1.7949   1.8338   1.8359   1.8396   1.8422   1.8522
     1.8533   1.8731   1.8858   1.8873   1.8902   1.9101   1.9118   1.9129
     1.9171   1.9177   1.9196   1.9408   1.9417   1.9486   1.9608   1.9721
     1.9746   1.9971   2.0083   2.0093   2.0652   2.0665   2.0756   2.0769
     2.0774   2.0778   2.0817   2.0826   2.0859   2.0962   2.0970   2.0978
     2.1090   2.1202   2.1206   2.1272   2.1273   2.1323   2.1343   2.2012
     2.2073   2.2088   2.2175   2.2847   2.2856   2.2881   2.2883   2.2900
     2.2907   2.2923   2.3036   2.3048   2.3070   2.3205   2.3319   2.3497
     2.3649   2.3650   2.3669   2.3719   2.3873   2.3902   2.3904   2.3914
     2.3925   2.4022   2.4141   2.4157   2.4185   2.4281   2.4285   2.5106
     2.5228   2.5459   2.5469   2.5732   2.5736   2.5750   2.5760   2.6050
     2.6052   2.6122   2.6266   2.6429   2.6463   2.6500   2.6518   2.6641
     2.6714   2.6871   2.6878   2.6886   2.6892   2.6977   2.7019   2.7192
     2.7212   2.7239   2.7307   2.7758   2.7759   2.7785   2.7791   2.7899
     2.7906   2.8102   2.8126   2.8394   2.8409   2.8503   2.8531   2.8750
     2.8751   2.8967   2.9018   2.9097   2.9208   2.9579   2.9594   2.9783
     2.9796   2.9817   2.9823   3.0020   3.0121   3.0122   3.0147   3.0155
     3.0177   3.0209   3.0396   3.0419   3.0423   3.0424   3.0429   3.0586
     3.0599   3.0618   3.0751   3.0770   3.0911   3.0939   3.1054   3.1057
     3.1067   3.1126   3.1178   3.1359   3.1468   3.1591   3.1596   3.1613
     3.1615   3.2463   3.2838   3.7878   3.8233   3.8301   3.8458   4.3213
     4.3706   4.3711   4.3713   4.3717   4.6354   4.6380   4.6395   4.6401
     4.9685   4.9874   5.0256   5.1176   5.1787   5.1790   5.1979   5.2018
     5.2083   5.4783   5.8151   6.0682   6.0884   6.1134   6.1374   6.1733
     6.1765   6.2020   6.2355   6.6141   6.7153   7.0167   7.1207   7.4784
     7.4846   7.4884   7.6774   7.8710   7.9788   8.2423   8.3498   8.4295
     8.6069   8.6148   8.6171   8.6526   8.9181   8.9589   8.9837   9.1999
     9.2567   9.2628   9.2768   9.2799   9.4500   9.6030   9.6276   9.7718
     9.8280   9.9191   9.9317   9.9341   9.9709  10.2810  10.3001  10.3873
    10.4259  10.4599  10.5454  10.5636  10.5878  10.8087  10.8592  11.0287
    11.0352  11.1372  11.2633  11.2869  11.3385  11.3958  11.4787  11.4887
    11.5780  11.6453  11.7397  12.0308  12.1387  12.1501  12.3012  12.3116
    12.3234  12.3468  12.4173  12.5916  12.7143  12.7995  12.8841  12.9521
    13.0097  13.0335  13.0813  13.1335  13.1686  13.2488  13.2689  13.2727
    13.3180  13.3265  13.3318  13.3830  13.5689  13.6351  13.7246  13.7275
    13.7999  13.8596

          k =-0.2500-0.7217 0.0000 ( 61343 PWs)   bands (ev):

  -107.7710-107.7664-107.7646-107.7641-107.7613-107.7611-107.7607-107.7600
  -107.7599-107.7595-107.7589-107.7586-107.7583-107.7577-107.7575-107.7571
  -107.7565-107.7563-107.7549-107.7543-107.7528-107.7513-107.7512-107.7504
  -107.7488-107.7485-107.7470-107.7456-107.7452-107.7444-107.7430-107.7419
  -107.7416-107.7411-107.7409-107.7386-107.5600-107.5574-107.5573-107.5502
  -107.5476-107.5474-107.5398-107.5374-107.5373-107.5071-107.5057-107.5054
  -107.5028-107.5025-107.5017-107.5016-107.5012-107.5010 -65.2193 -65.2153
   -65.2138 -65.2134 -65.2124 -65.2121 -65.2114 -65.2100 -65.2087 -65.2068
   -65.2064 -65.2055 -65.2028 -65.2014 -65.2006 -65.2000 -65.1999 -65.1975
   -65.1963 -65.1942 -65.1939 -65.1936 -65.1931 -65.1920 -65.1914 -65.1909
   -65.1899 -65.1893 -65.1872 -65.1862 -65.1833 -65.1815 -65.1811 -65.1802
   -65.1781 -65.1777 -65.1772 -65.1765 -65.1762 -65.1741 -65.1731 -65.1727
   -65.1723 -65.1714 -65.1707 -65.1703 -65.1687 -65.1674 -65.1669 -65.1664
   -65.1662 -65.1660 -65.1658 -65.1648 -65.1643 -65.1638 -65.1629 -65.1628
   -65.1621 -65.1611 -65.1605 -65.1604 -65.1603 -65.1596 -65.1583 -65.1575
   -65.1572 -65.1567 -65.1562 -65.1561 -65.1556 -65.1552 -65.1547 -65.1544
   -65.1542 -65.1536 -65.1530 -65.1524 -65.1521 -65.1513 -65.1511 -65.1504
   -65.1495 -65.1494 -65.1492 -65.1489 -65.1485 -65.1483 -65.1483 -65.1479
   -65.1465 -65.1456 -65.1455 -65.1440 -65.1433 -65.1429 -65.1427 -65.1423
   -65.1419 -65.1416 -65.1397 -65.1388 -65.1385 -65.1377 -65.1342 -65.1323
   -65.1320 -65.1283 -65.0206 -65.0188 -65.0166 -65.0079 -65.0048 -65.0017
   -64.9877 -64.9869 -64.9834 -64.9797 -64.9780 -64.9761 -64.9759 -64.9738
   -64.9732 -64.9730 -64.9709 -64.9666 -64.9662 -64.9630 -64.9628 -64.9625
   -64.9595 -64.9556 -64.9432 -64.9415 -64.9411 -64.9403 -64.9402 -64.9392
   -64.9391 -64.9346 -64.9344 -64.9337 -64.9335 -64.9290 -64.9271 -64.9266
   -64.9265 -64.9225 -64.9224 -64.9184 -64.9174 -64.9152 -64.9151 -64.8791
   -64.8777 -64.8774 -64.8751 -64.8746 -64.8740 -64.8739 -64.8734 -64.8732
   -12.8877 -10.1408 -10.1379  -6.5354  -6.5277  -4.5512  -3.4013  -2.9413
    -2.8009  -2.6319  -2.5957  -2.5950  -2.0653  -2.0420  -2.0170  -1.9842
    -1.8807  -1.2155  -1.1665  -0.9435  -0.6883  -0.5840  -0.5824  -0.2367
    -0.2345  -0.2039  -0.1687  -0.0828  -0.0504   0.0073   0.0076   0.0191
     0.1789   0.1813   0.2020   0.2023   0.2183   0.2682   0.2790   0.2793
     0.2974   0.3963   0.3986   0.4008   0.4014   0.4677   0.4781   0.5373
     0.5404   0.5511   0.5623   0.5916   0.5917   0.5935   0.6113   0.6131
     0.6715   0.6732   0.7058   0.7067   0.7361   0.7362   0.7646   0.7716
     0.7730   0.8342   0.8349   0.8652   0.8852   0.9009   0.9016   0.9693
     0.9764   1.0265   1.0459   1.0470   1.0698   1.0713   1.1314   1.1390
     1.1419   1.1580   1.1585   1.1673   1.2094   1.2344   1.2361   1.2794
     1.2806   1.3011   1.3059   1.3079   1.3117   1.3297   1.3302   1.3811
     1.3858   1.3897   1.3919   1.3968   1.4063   1.4265   1.4281   1.4341
     1.4391   1.4606   1.4658   1.4829   1.4880   1.4909   1.5081   1.5383
     1.5706   1.5717   1.5825   1.5861   1.5869   1.6086   1.6182   1.6335
     1.6359   1.6581   1.6714   1.6780   1.6791   1.6869   1.7065   1.7147
     1.7230   1.7316   1.7406   1.7427   1.7464   1.7780   1.7844   1.7864
     1.7874   1.7991   1.8084   1.8178   1.8194   1.8332   1.8361   1.8459
     1.8490   1.8716   1.8844   1.8985   1.9024   1.9120   1.9187   1.9239
     1.9266   1.9327   1.9405   1.9445   1.9446   1.9520   1.9584   1.9588
     1.9713   1.9800   1.9900   1.9929   2.0119   2.0206   2.0288   2.0330
     2.0466   2.0480   2.0501   2.0508   2.0537   2.0559   2.0586   2.0640
     2.0656   2.0790   2.1292   2.1309   2.1903   2.1915   2.1923   2.1981
     2.2020   2.2063   2.2247   2.2257   2.2494   2.2589   2.2616   2.2724
     2.2907   2.2924   2.3298   2.3305   2.3341   2.3630   2.3643   2.3645
     2.3659   2.3668   2.3690   2.3712   2.3750   2.3843   2.4020   2.4037
     2.4452   2.4460   2.4523   2.4529   2.4596   2.4656   2.4744   2.4964
     2.5018   2.5063   2.5184   2.5377   2.5405   2.5595   2.5687   2.5695
     2.5810   2.5851   2.6128   2.6193   2.6244   2.6316   2.6547   2.6576
     2.6769   2.6815   2.6815   2.7002   2.7042   2.7224   2.7265   2.7289
     2.7303   2.7357   2.7420   2.7442   2.7503   2.7575   2.7699   2.7878
     2.8177   2.8189   2.8204   2.8298   2.8708   2.8719   2.8850   2.8914
     2.9165   2.9282   2.9308   2.9370   2.9381   2.9447   2.9510   2.9806
     2.9833   2.9836   2.9906   2.9923   3.0007   3.0040   3.0059   3.0071
     3.0118   3.0141   3.0154   3.0169   3.0206   3.0329   3.0351   3.0472
     3.0485   3.0595   3.0599   3.0653   3.0725   3.0870   3.0929   3.0999
     3.1010   3.1175   3.1415   3.1431   3.1595   3.1796   3.1808   3.3410
     3.3551   3.4484   3.4488   3.5465   3.5483   3.6684   3.8697   3.8778
     4.2585   4.2882   4.3565   4.3580   4.3732   4.6320   4.7312   4.7533
     4.7631   4.7635   4.9268   5.2033   5.2317   5.2342   5.6845   5.7158
     5.7502   5.8511   5.9684   5.9797   5.9813   6.1173   6.1315   6.2003
     6.2854   6.6378   6.7052   6.7186   6.8840   6.9892   7.0278   7.0795
     7.1035   7.1818   7.2247   7.4326   7.6523   7.7457   7.9541   7.9875
     8.4586   8.5390   8.5423   8.6450   8.7503   8.9429   9.1620   9.1687
     9.2313   9.3321   9.3638   9.4968   9.5238   9.6274   9.7133   9.7470
     9.8132   9.9708  10.0221  10.1272  10.1860  10.3792  10.4243  10.4750
    10.5291  10.6346  10.7685  10.8635  10.9128  11.0233  11.0963  11.2022
    11.2170  11.2606  11.4619  11.5275  11.5398  11.6085  11.6228  11.7171
    11.7564  11.8568  11.8955  11.9254  11.9838  12.0927  12.1235  12.1874
    12.3010  12.3926  12.4623  12.4737  12.5604  12.6094  12.6203  12.6719
    12.7187  12.7885  12.8357  12.8551  12.9492  13.0567  13.1703  13.1784
    13.3139  13.3317  13.3855  13.4372  13.4972  13.5531  13.5853  13.6537
    13.7042  13.7173

          k =-0.5000-0.5774 0.0000 ( 61343 PWs)   bands (ev):

  -107.7710-107.7664-107.7646-107.7641-107.7613-107.7611-107.7607-107.7600
  -107.7599-107.7595-107.7589-107.7586-107.7583-107.7577-107.7575-107.7571
  -107.7565-107.7563-107.7549-107.7543-107.7528-107.7513-107.7512-107.7504
  -107.7488-107.7485-107.7470-107.7456-107.7452-107.7444-107.7430-107.7419
  -107.7416-107.7411-107.7409-107.7386-107.5600-107.5574-107.5573-107.5502
  -107.5476-107.5474-107.5398-107.5374-107.5373-107.5071-107.5057-107.5054
  -107.5028-107.5025-107.5017-107.5016-107.5012-107.5010 -65.2193 -65.2153
   -65.2138 -65.2134 -65.2124 -65.2121 -65.2114 -65.2100 -65.2087 -65.2068
   -65.2064 -65.2055 -65.2028 -65.2014 -65.2006 -65.2000 -65.1999 -65.1975
   -65.1963 -65.1942 -65.1939 -65.1936 -65.1931 -65.1920 -65.1914 -65.1909
   -65.1899 -65.1893 -65.1872 -65.1862 -65.1833 -65.1815 -65.1811 -65.1802
   -65.1781 -65.1777 -65.1772 -65.1765 -65.1762 -65.1741 -65.1731 -65.1728
   -65.1723 -65.1714 -65.1707 -65.1703 -65.1687 -65.1674 -65.1669 -65.1664
   -65.1662 -65.1660 -65.1658 -65.1648 -65.1643 -65.1638 -65.1629 -65.1628
   -65.1621 -65.1611 -65.1605 -65.1604 -65.1603 -65.1596 -65.1583 -65.1575
   -65.1572 -65.1567 -65.1562 -65.1561 -65.1556 -65.1552 -65.1547 -65.1544
   -65.1542 -65.1536 -65.1530 -65.1524 -65.1521 -65.1513 -65.1511 -65.1504
   -65.1495 -65.1494 -65.1492 -65.1489 -65.1485 -65.1483 -65.1483 -65.1479
   -65.1465 -65.1456 -65.1455 -65.1440 -65.1433 -65.1429 -65.1427 -65.1423
   -65.1419 -65.1416 -65.1397 -65.1388 -65.1385 -65.1376 -65.1342 -65.1323
   -65.1320 -65.1283 -65.0206 -65.0188 -65.0166 -65.0079 -65.0048 -65.0017
   -64.9877 -64.9869 -64.9834 -64.9797 -64.9780 -64.9761 -64.9759 -64.9738
   -64.9732 -64.9730 -64.9709 -64.9666 -64.9662 -64.9630 -64.9628 -64.9625
   -64.9595 -64.9556 -64.9432 -64.9415 -64.9411 -64.9403 -64.9402 -64.9391
   -64.9391 -64.9346 -64.9344 -64.9337 -64.9335 -64.9290 -64.9271 -64.9266
   -64.9265 -64.9225 -64.9224 -64.9184 -64.9174 -64.9152 -64.9151 -64.8791
   -64.8777 -64.8774 -64.8751 -64.8746 -64.8740 -64.8739 -64.8734 -64.8732
   -12.8877 -10.1406 -10.1381  -6.5357  -6.5273  -4.5512  -3.4013  -2.9413
    -2.8009  -2.6319  -2.5957  -2.5950  -2.0653  -2.0420  -2.0170  -1.9842
    -1.8808  -1.2155  -1.1665  -0.9435  -0.6883  -0.5840  -0.5824  -0.2367
    -0.2345  -0.2039  -0.1687  -0.0827  -0.0505   0.0073   0.0076   0.0191
     0.1789   0.1813   0.2020   0.2023   0.2183   0.2682   0.2790   0.2793
     0.2974   0.3963   0.3986   0.4008   0.4014   0.4677   0.4781   0.5373
     0.5404   0.5511   0.5623   0.5916   0.5917   0.5935   0.6113   0.6131
     0.6715   0.6732   0.7058   0.7067   0.7361   0.7362   0.7646   0.7716
     0.7730   0.8342   0.8349   0.8652   0.8852   0.9009   0.9016   0.9693
     0.9764   1.0265   1.0459   1.0470   1.0698   1.0713   1.1314   1.1390
     1.1419   1.1580   1.1585   1.1673   1.2094   1.2344   1.2361   1.2794
     1.2806   1.3011   1.3059   1.3079   1.3117   1.3297   1.3302   1.3811
     1.3858   1.3897   1.3919   1.3968   1.4063   1.4265   1.4281   1.4341
     1.4391   1.4606   1.4658   1.4829   1.4880   1.4909   1.5081   1.5383
     1.5706   1.5717   1.5825   1.5861   1.5869   1.6086   1.6182   1.6335
     1.6359   1.6581   1.6714   1.6780   1.6791   1.6869   1.7065   1.7147
     1.7230   1.7316   1.7406   1.7427   1.7464   1.7780   1.7844   1.7864
     1.7874   1.7991   1.8084   1.8178   1.8195   1.8332   1.8361   1.8459
     1.8490   1.8716   1.8844   1.8985   1.9024   1.9120   1.9187   1.9239
     1.9266   1.9327   1.9405   1.9445   1.9446   1.9520   1.9584   1.9588
     1.9713   1.9800   1.9900   1.9929   2.0119   2.0206   2.0288   2.0330
     2.0466   2.0479   2.0501   2.0508   2.0537   2.0559   2.0586   2.0640
     2.0656   2.0790   2.1292   2.1309   2.1903   2.1915   2.1923   2.1980
     2.2020   2.2063   2.2247   2.2257   2.2494   2.2589   2.2616   2.2724
     2.2907   2.2924   2.3298   2.3305   2.3341   2.3630   2.3643   2.3645
     2.3659   2.3668   2.3690   2.3712   2.3750   2.3843   2.4020   2.4037
     2.4452   2.4460   2.4523   2.4529   2.4596   2.4656   2.4744   2.4964
     2.5018   2.5063   2.5184   2.5377   2.5405   2.5595   2.5687   2.5695
     2.5810   2.5851   2.6128   2.6193   2.6244   2.6316   2.6547   2.6576
     2.6769   2.6815   2.6815   2.7002   2.7042   2.7224   2.7265   2.7289
     2.7303   2.7357   2.7420   2.7442   2.7503   2.7575   2.7699   2.7878
     2.8177   2.8189   2.8204   2.8298   2.8708   2.8719   2.8850   2.8914
     2.9165   2.9282   2.9308   2.9370   2.9381   2.9447   2.9510   2.9806
     2.9833   2.9836   2.9906   2.9923   3.0007   3.0040   3.0059   3.0071
     3.0118   3.0141   3.0154   3.0169   3.0206   3.0329   3.0351   3.0473
     3.0485   3.0595   3.0599   3.0653   3.0725   3.0870   3.0929   3.0999
     3.1010   3.1175   3.1415   3.1431   3.1595   3.1796   3.1808   3.3410
     3.3551   3.4484   3.4488   3.5465   3.5483   3.6684   3.8697   3.8778
     4.2585   4.2882   4.3565   4.3580   4.3732   4.6320   4.7312   4.7533
     4.7631   4.7635   4.9268   5.2033   5.2317   5.2343   5.6845   5.7158
     5.7502   5.8511   5.9685   5.9797   5.9813   6.1173   6.1315   6.2003
     6.2854   6.6378   6.7052   6.7186   6.8840   6.9892   7.0278   7.0795
     7.1036   7.1818   7.2247   7.4326   7.6523   7.7457   7.9541   7.9876
     8.4585   8.5390   8.5423   8.6450   8.7503   8.9430   9.1620   9.1686
     9.2313   9.3321   9.3638   9.4968   9.5238   9.6274   9.7133   9.7471
     9.8132   9.9708  10.0220  10.1272  10.1860  10.3792  10.4243  10.4750
    10.5291  10.6345  10.7685  10.8635  10.9128  11.0233  11.0963  11.2022
    11.2170  11.2606  11.4620  11.5276  11.5397  11.6086  11.6227  11.7171
    11.7564  11.8568  11.8955  11.9254  11.9838  12.0927  12.1234  12.1875
    12.3011  12.3926  12.4623  12.4737  12.5604  12.6094  12.6203  12.6719
    12.7187  12.7885  12.8357  12.8550  12.9492  13.0567  13.1703  13.1784
    13.3139  13.3317  13.3855  13.4373  13.4973  13.5532  13.5853  13.6537
    13.7042  13.7173

     the Fermi energy is     4.6780 ev

!    total energy              =  -21903.76249719 Ry
     Harris-Foulkes estimate   =  -21903.76249721 Ry
     estimated scf accuracy    <          3.9E-09 Ry

     The total energy is the sum of the following terms:

     one-electron contribution = -208170.46730512 Ry
     hartree contribution      =  104290.17990454 Ry
     xc contribution           =   -2143.23614293 Ry
     ewald contribution        =   84119.81387223 Ry
     smearing contrib. (-TS)   =      -0.05282592 Ry

     convergence has been achieved in  37 iterations
 
     init_run     :    102.77s CPU    105.06s WALL (       1 calls)
     electrons    :  19475.17s CPU  19765.39s WALL (       1 calls)

     Called by init_run:
     wfcinit      :     91.29s CPU     92.93s WALL (       1 calls)
     potinit      :      8.10s CPU      8.28s WALL (       1 calls)
     hinit0       :      1.62s CPU      1.63s WALL (       1 calls)

     Called by electrons:
     c_bands      :  18011.42s CPU  18245.55s WALL (      37 calls)
     sum_band     :   1157.81s CPU   1189.49s WALL (      37 calls)
     v_of_rho     :    257.01s CPU    264.46s WALL (      38 calls)
     newd         :     45.11s CPU     62.19s WALL (      38 calls)
     mix_rho      :      7.52s CPU      7.64s WALL (      37 calls)

     Called by c_bands:
     init_us_2    :     13.75s CPU     13.84s WALL (     750 calls)
     cegterg      :  17901.30s CPU  18130.26s WALL (     370 calls)

     Called by sum_band:
     sum_band:bec :      2.81s CPU      2.82s WALL (     370 calls)
     addusdens    :     31.22s CPU     50.60s WALL (      37 calls)

     Called by *egterg:
     h_psi        :   5598.62s CPU   5670.43s WALL (    1945 calls)
     s_psi        :    360.83s CPU    361.20s WALL (    1945 calls)
     g_psi        :      5.63s CPU      5.66s WALL (    1565 calls)
     cdiaghg      :   9207.13s CPU   9273.81s WALL (    1935 calls)

     Called by h_psi:
     h_psi:pot    :   5589.67s CPU   5645.45s WALL (    1945 calls)
     h_psi:calbec :    620.61s CPU    621.69s WALL (    1945 calls)
     vloc_psi     :   4607.02s CPU   4660.75s WALL (    1945 calls)
     add_vuspsi   :    362.01s CPU    362.98s WALL (    1945 calls)

     General routines
     calbec       :    822.85s CPU    824.17s WALL (    2315 calls)
     fft          :    236.31s CPU    237.68s WALL (    2393 calls)
     ffts         :     10.11s CPU     10.12s WALL (      75 calls)
     fftw         :   5279.84s CPU   5340.54s WALL ( 1476594 calls)
     interpolate  :      3.79s CPU      3.82s WALL (      38 calls)
 
     Parallel routines
     fft_scatt_xy :    211.04s CPU    213.25s WALL ( 1479062 calls)
     fft_scatt_yz :   4514.04s CPU   4563.13s WALL ( 1479062 calls)
 
     PWSCF        :     5h26m CPU       26h 5m WALL

      31h
 
   This run was terminated on:   1:21: 6  22Nov2019            

=------------------------------------------------------------------------------=
   JOB DONE.
=------------------------------------------------------------------------------=
