
     Program PWSCF v.6.3MaX starts on 14Nov2019 at 11: 2: 0 

     This program is part of the open-source Quantum ESPRESSO suite
     for quantum simulation of materials; please cite
         "P. Giannozzi et al., J. Phys.:Condens. Matter 21 395502 (2009);
         "P. Giannozzi et al., J. Phys.:Condens. Matter 29 465901 (2017);
          URL http://www.quantum-espresso.org", 
     in publications or presentations arising from this work. More details at
     http://www.quantum-espresso.org/quote

     Parallel version (MPI), running on    16 processors

     MPI processes distributed on     2 nodes
     R & G space division:  proc/nbgrp/npool/nimage =      16
     Waiting for input...
     Reading input from standard input

     Current dimensions of program PWSCF are:
     Max number of different atomic species (ntypx) = 10
     Max number of k-points (npk) =  40000
     Max angular momentum in pseudopotentials (lmaxx) =  3
     Message from routine iosys:
     minimal I/O required, wf_collect reset to FALSE

     IMPORTANT: XC functional enforced from input :
     Exchange-correlation      = VDW-DF ( 1  4  4  0 1 0)
     Any further DFT definition will be discarded
     Please, verify this is what you really want


     Subspace diagonalization in iterative solution of the eigenvalue problem:
     one sub-group per band group will be used
     scalapack distributed-memory algorithm (size of sub-group:  2*  2 procs)

 
     Parallelization info
     --------------------
     sticks:   dense  smooth     PW     G-vecs:    dense   smooth      PW
     Min         565     189     51               159513    30701    4383
     Max         566     190     52               159526    30710    4400
     Sum        9055    3037    823              2552337   491295   70261
 


     bravais-lattice index     =            0
     lattice parameter (alat)  =      14.8058  a.u.
     unit-cell volume          =   10282.4791 (a.u.)^3
     number of atoms/cell      =           66
     number of atomic types    =            3
     number of electrons       =      1056.00
     number of Kohn-Sham states=          634
     kinetic-energy cutoff     =      50.0000  Ry
     charge density cutoff     =     600.0000  Ry
     convergence threshold     =      1.0E-08
     mixing beta               =       0.3000
     number of iterations used =            8  plain     mixing
     Exchange-correlation      = VDW-DF ( 1  4  4  0 1 0)

     celldm(1)=  14.805786  celldm(2)=   0.000000  celldm(3)=   0.000000
     celldm(4)=   0.000000  celldm(5)=   0.000000  celldm(6)=   0.000000

     crystal axes: (cart. coord. in units of alat)
               a(1) = (   1.000000   0.000000   0.000000 )  
               a(2) = (   0.500000   0.866025   0.000000 )  
               a(3) = (   0.000000   0.000000   3.658245 )  

     reciprocal axes: (cart. coord. in units 2 pi/alat)
               b(1) = (  1.000000 -0.577350  0.000000 )  
               b(2) = (  0.000000  1.154701  0.000000 )  
               b(3) = (  0.000000  0.000000  0.273355 )  


     PseudoPot. # 1 for Cu read from file:
     /deac/thonhauserGrp/chakrad/calculations/atomandmolecule-qe6.2.1-i2012-C6modif/all_pbe_UPF_v1.5/cu_pbe_v1.2.uspp.F.UPF
     MD5 check sum: 6e991ff952a84172a2a52a1c1e996048
     Pseudo is Ultrasoft + core correction, Zval = 19.0
     Generated by new atomic code, or converted to UPF format
     Using radial grid of  867 points,  6 beta functions with: 
                l(1) =   0
                l(2) =   0
                l(3) =   1
                l(4) =   1
                l(5) =   2
                l(6) =   2
     Q(r) pseudized with  8 coefficients,  rinner =    1.150   1.150   1.150
                                                       1.150   1.150

     PseudoPot. # 2 for C  read from file:
     /deac/thonhauserGrp/chakrad/calculations/atomandmolecule-qe6.2.1-i2012-C6modif/all_pbe_UPF_v1.5/c_pbe_v1.2.uspp.F.UPF
     MD5 check sum: d1aef80898a10debaa0f26306b886e00
     Pseudo is Ultrasoft + core correction, Zval =  4.0
     Generated by new atomic code, or converted to UPF format
     Using radial grid of  721 points,  4 beta functions with: 
                l(1) =   0
                l(2) =   0
                l(3) =   1
                l(4) =   1
     Q(r) pseudized with  8 coefficients,  rinner =    1.100   1.100   1.100


     PseudoPot. # 3 for H  read from file:
     /deac/thonhauserGrp/chakrad/calculations/atomandmolecule-qe6.2.1-i2012-C6modif/all_pbe_UPF_v1.5/h_pbe_v1.4.uspp.F.UPF
     MD5 check sum: 761ae9a214b05c3daf00ab9f6b793d6f
     Pseudo is Ultrasoft, Zval =  1.0
     Generated by new atomic code, or converted to UPF format
     Using radial grid of  615 points,  2 beta functions with: 
                l(1) =   0
                l(2) =   0
     Q(r) pseudized with  8 coefficients,  rinner =    0.700

     vdW kernel table read from file vdW_kernel_table
     MD5 check sum: cc9485f6209b1096fbef62427c856dab

     atomic species   valence    mass     pseudopotential
        Cu            19.00     1.00000     Cu( 1.00)
        C              4.00     1.00000     C ( 1.00)
        H              1.00     1.00000     H ( 1.00)

     No symmetry found



   Cartesian axes

     site n.     atom                  positions (alat units)
         1           Cu  tau(   1) = (   0.1666667   0.0962250   0.2552686  )
         2           Cu  tau(   2) = (   0.5000000   0.0962250   0.2552686  )
         3           Cu  tau(   3) = (   0.8333333   0.0962250   0.2552686  )
         4           Cu  tau(   4) = (   0.3333333   0.3849002   0.2552686  )
         5           Cu  tau(   5) = (   0.6666667   0.3849002   0.2552686  )
         6           Cu  tau(   6) = (   1.0000000   0.3849002   0.2552686  )
         7           Cu  tau(   7) = (   0.5000000   0.6735753   0.2552686  )
         8           Cu  tau(   8) = (   0.8333333   0.6735753   0.2552686  )
         9           Cu  tau(   9) = (   1.1666667   0.6735753   0.2552686  )
        10           Cu  tau(  10) = (   0.0000000   0.1924501   0.5274341  )
        11           Cu  tau(  11) = (   0.3333333   0.1924501   0.5274341  )
        12           Cu  tau(  12) = (   0.6666667   0.1924501   0.5274341  )
        13           Cu  tau(  13) = (   0.1666667   0.4811252   0.5274341  )
        14           Cu  tau(  14) = (   0.5000000   0.4811252   0.5274341  )
        15           Cu  tau(  15) = (   0.8333333   0.4811252   0.5274341  )
        16           Cu  tau(  16) = (   0.3333333   0.7698004   0.5274341  )
        17           Cu  tau(  17) = (   0.6666667   0.7698004   0.5274341  )
        18           Cu  tau(  18) = (   1.0000000   0.7698004   0.5274341  )
        19           Cu  tau(  19) = (   0.0000000   0.0000000   0.7995997  )
        20           Cu  tau(  20) = (   0.3333333   0.0000000   0.7995997  )
        21           Cu  tau(  21) = (   0.6666667   0.0000000   0.7995997  )
        22           Cu  tau(  22) = (   0.1666667   0.2886751   0.7995997  )
        23           Cu  tau(  23) = (   0.5000000   0.2886751   0.7995997  )
        24           Cu  tau(  24) = (   0.8333333   0.2886751   0.7995997  )
        25           Cu  tau(  25) = (   0.3333333   0.5773503   0.7995997  )
        26           Cu  tau(  26) = (   0.6666667   0.5773503   0.7995997  )
        27           Cu  tau(  27) = (   1.0000000   0.5773503   0.7995997  )
        28           Cu  tau(  28) = (   0.1666659   0.0962246   1.0691130  )
        29           Cu  tau(  29) = (   0.5000000   0.0962241   1.0691104  )
        30           Cu  tau(  30) = (   0.8333341   0.0962246   1.0691130  )
        31           Cu  tau(  31) = (   0.3333325   0.3849006   1.0691104  )
        32           Cu  tau(  32) = (   0.6666675   0.3849006   1.0691104  )
        33           Cu  tau(  33) = (   1.0000000   0.3849003   1.0691143  )
        34           Cu  tau(  34) = (   0.5000000   0.6735762   1.0691130  )
        35           Cu  tau(  35) = (   0.8333334   0.6735753   1.0691143  )
        36           Cu  tau(  36) = (   1.1666666   0.6735753   1.0691143  )
        37           Cu  tau(  37) = (   0.0000000   0.1924486   1.3387540  )
        38           Cu  tau(  38) = (   0.3333330   0.1924499   1.3387465  )
        39           Cu  tau(  39) = (   0.6666670   0.1924499   1.3387465  )
        40           Cu  tau(  40) = (   0.1666676   0.4811247   1.3387504  )
        41           Cu  tau(  41) = (   0.5000000   0.4811256   1.3387465  )
        42           Cu  tau(  42) = (   0.8333324   0.4811247   1.3387504  )
        43           Cu  tau(  43) = (   0.3333346   0.7698011   1.3387540  )
        44           Cu  tau(  44) = (   0.6666654   0.7698011   1.3387540  )
        45           Cu  tau(  45) = (   1.0000000   0.7698014   1.3387504  )
        46           Cu  tau(  46) = (   0.0000000   0.0000000   1.6083750  )
        47           Cu  tau(  47) = (   0.3333333   0.0000005   1.6083624  )
        48           Cu  tau(  48) = (   0.6666667   0.0000005   1.6083624  )
        49           Cu  tau(  49) = (   0.1666671   0.2886748   1.6083624  )
        50           Cu  tau(  50) = (   0.5000000   0.2886751   1.6083553  )
        51           Cu  tau(  51) = (   0.8333329   0.2886748   1.6083624  )
        52           Cu  tau(  52) = (   0.3333338   0.5773500   1.6083624  )
        53           Cu  tau(  53) = (   0.6666662   0.5773500   1.6083624  )
        54           Cu  tau(  54) = (   1.0000000   0.5773503   1.6083570  )
        55           C   tau(  55) = (   0.6567407   0.3959883   2.1188551  )
        56           C   tau(  56) = (   0.5046394   0.3028152   2.1188550  )
        57           C   tau(  57) = (   0.3478975   0.3879497   2.1188551  )
        58           C   tau(  58) = (   0.3432593   0.5662630   2.1188551  )
        59           C   tau(  59) = (   0.4953606   0.6594361   2.1188550  )
        60           C   tau(  60) = (   0.6521025   0.5743016   2.1188551  )
        61           H   tau(  61) = (   0.7789959   0.3295665   2.1189333  )
        62           H   tau(  62) = (   0.5082587   0.1637263   2.1189334  )
        63           H   tau(  63) = (   0.2292624   0.3152577   2.1189333  )
        64           H   tau(  64) = (   0.2210041   0.6326847   2.1189333  )
        65           H   tau(  65) = (   0.4917413   0.7985249   2.1189334  )
        66           H   tau(  66) = (   0.7707376   0.6469936   2.1189333  )

     number of k points=    10  gaussian smearing, width (Ry)=  0.0200
                       cart. coord. in units 2pi/alat
        k(    1) = (   0.0000000   0.0000000   0.0000000), wk =   0.1250000
        k(    2) = (   0.0000000   0.2886751   0.0000000), wk =   0.2500000
        k(    3) = (   0.0000000  -0.5773503   0.0000000), wk =   0.1250000
        k(    4) = (   0.2500000  -0.7216878   0.0000000), wk =   0.2500000
        k(    5) = (  -0.2500000   0.1443376   0.0000000), wk =   0.2500000
        k(    6) = (   0.2500000   0.1443376   0.0000000), wk =   0.2500000
        k(    7) = (   0.5000000  -0.2886751   0.0000000), wk =   0.1250000
        k(    8) = (  -0.5000000  -0.2886751   0.0000000), wk =   0.1250000
        k(    9) = (  -0.2500000  -0.7216878   0.0000000), wk =   0.2500000
        k(   10) = (  -0.5000000  -0.5773503   0.0000000), wk =   0.2500000

     Dense  grid:  2552337 G-vectors     FFT dimensions: ( 120, 120, 432)

     Smooth grid:   491295 G-vectors     FFT dimensions: (  72,  72, 243)

     Estimated max dynamical RAM per process >       1.14 GB

     Estimated total dynamical RAM >      18.26 GB

     Initial potential from superposition of free atoms
     Check: negative starting charge=   -0.000687

     starting charge 1001.99960, renormalised to 1056.00000

     negative rho (up, down):  7.236E-04 0.000E+00


     %%%%%%%%%%%%%%%%%%%%%%%%%%%%%%%%%%%%%%%%%%%%%%%%%%%%%%%%%%%%%%%%%%%%%%%%
     %                                                                      %
     % You are using vdW-DF, which was implemented by the Thonhauser group. %
     % Please cite the following two papers that made this development      %
     % possible and the two reviews that describe the various versions:     %
     %                                                                      %
     %   T. Thonhauser et al., PRL 115, 136402 (2015).                      %
     %   T. Thonhauser et al., PRB 76, 125112 (2007).                       %
     %   K. Berland et al., Rep. Prog. Phys. 78, 066501 (2015).             %
     %   D.C. Langreth et al., J. Phys.: Condens. Matter 21, 084203 (2009). %
     %                                                                      %
     %                                                                      %
     % If you are calculating the stress with vdW-DF, please also cite:     %
     %                                                                      %
     %   R. Sabatini et al., J. Phys.: Condens. Matter 24, 424209 (2012).   %
     %                                                                      %
     %%%%%%%%%%%%%%%%%%%%%%%%%%%%%%%%%%%%%%%%%%%%%%%%%%%%%%%%%%%%%%%%%%%%%%%%


     Starting wfcs are  732 randomized atomic wfcs

     total cpu time spent up to now is      328.2 secs

     Self-consistent Calculation

     iteration #  1     ecut=    50.00 Ry     beta= 0.30
     Davidson diagonalization with overlap
     ethr =  1.00E-02,  avg # of iterations =  5.6

     negative rho (up, down):  4.508E-04 0.000E+00

     total cpu time spent up to now is     2802.4 secs

     total energy              =  -19190.08923901 Ry
     Harris-Foulkes estimate   =  -22002.40758941 Ry
     estimated scf accuracy    <    5560.72385334 Ry

     iteration #  2     ecut=    50.00 Ry     beta= 0.30
     Davidson diagonalization with overlap
     ethr =  1.00E-02,  avg # of iterations = 19.1

     negative rho (up, down):  4.821E-04 0.000E+00

     total cpu time spent up to now is     8575.4 secs

     total energy              =  -19198.52213692 Ry
     Harris-Foulkes estimate   =  -38201.41714558 Ry
     estimated scf accuracy    <  282300.02589865 Ry

     iteration #  3     ecut=    50.00 Ry     beta= 0.30
     Davidson diagonalization with overlap
     ethr =  1.00E-02,  avg # of iterations =  7.1

     negative rho (up, down):  5.565E-04 0.000E+00

     total cpu time spent up to now is    11702.0 secs

     total energy              =  -21685.91556729 Ry
     Harris-Foulkes estimate   =  -23243.38138722 Ry
     estimated scf accuracy    <   43782.41791769 Ry

     iteration #  4     ecut=    50.00 Ry     beta= 0.30
     Davidson diagonalization with overlap
     ethr =  1.00E-02,  avg # of iterations =  8.2

     negative rho (up, down):  5.364E-04 0.000E+00

     total cpu time spent up to now is    14015.1 secs

     total energy              =  -21709.71557050 Ry
     Harris-Foulkes estimate   =  -22083.70467805 Ry
     estimated scf accuracy    <    7004.99057327 Ry

     iteration #  5     ecut=    50.00 Ry     beta= 0.30
     Davidson diagonalization with overlap
     ethr =  1.00E-02,  avg # of iterations =  4.0

     negative rho (up, down):  6.592E-04 0.000E+00

     total cpu time spent up to now is    15313.2 secs

     total energy              =  -21866.96808615 Ry
     Harris-Foulkes estimate   =  -21979.16088894 Ry
     estimated scf accuracy    <    1200.82649079 Ry

     iteration #  6     ecut=    50.00 Ry     beta= 0.30
     Davidson diagonalization with overlap
     ethr =  1.00E-02,  avg # of iterations =  4.2

     negative rho (up, down):  7.521E-04 0.000E+00

     total cpu time spent up to now is    16256.5 secs

     total energy              =  -21886.04885309 Ry
     Harris-Foulkes estimate   =  -21948.04058403 Ry
     estimated scf accuracy    <     816.77981618 Ry

     iteration #  7     ecut=    50.00 Ry     beta= 0.30
     Davidson diagonalization with overlap
     ethr =  1.00E-02,  avg # of iterations =  2.5

     negative rho (up, down):  8.425E-04 0.000E+00

     total cpu time spent up to now is    16931.6 secs

     total energy              =  -21909.75946395 Ry
     Harris-Foulkes estimate   =  -21927.64970169 Ry
     estimated scf accuracy    <     263.27015134 Ry

     iteration #  8     ecut=    50.00 Ry     beta= 0.30
     Davidson diagonalization with overlap
     ethr =  1.00E-02,  avg # of iterations =  2.2

     negative rho (up, down):  9.802E-04 0.000E+00

     total cpu time spent up to now is    17536.0 secs

     total energy              =  -21910.46956409 Ry
     Harris-Foulkes estimate   =  -21917.65544557 Ry
     estimated scf accuracy    <      63.55843170 Ry

     iteration #  9     ecut=    50.00 Ry     beta= 0.30
     Davidson diagonalization with overlap
     ethr =  6.02E-03,  avg # of iterations =  3.4

     negative rho (up, down):  1.090E-03 0.000E+00

     total cpu time spent up to now is    18251.8 secs

     total energy              =  -21909.77080516 Ry
     Harris-Foulkes estimate   =  -21915.49987298 Ry
     estimated scf accuracy    <     310.68749935 Ry

     iteration # 10     ecut=    50.00 Ry     beta= 0.30
     Davidson diagonalization with overlap
     ethr =  6.02E-03,  avg # of iterations =  1.1

     negative rho (up, down):  1.357E-03 0.000E+00

     total cpu time spent up to now is    18793.6 secs

     total energy              =  -21898.77790787 Ry
     Harris-Foulkes estimate   =  -21911.51903923 Ry
     estimated scf accuracy    <     275.78833012 Ry

     iteration # 11     ecut=    50.00 Ry     beta= 0.30
     Davidson diagonalization with overlap
     ethr =  6.02E-03,  avg # of iterations =  4.3

     negative rho (up, down):  1.985E-05 0.000E+00

     total cpu time spent up to now is    19589.7 secs

     total energy              =  -21888.97567418 Ry
     Harris-Foulkes estimate   =  -21918.32512304 Ry
     estimated scf accuracy    <     610.20851726 Ry

     iteration # 12     ecut=    50.00 Ry     beta= 0.30
     Davidson diagonalization with overlap
     ethr =  6.02E-03,  avg # of iterations =  2.1

     negative rho (up, down):  2.328E-05 0.000E+00

     total cpu time spent up to now is    20020.7 secs

     total energy              =  -21901.80345590 Ry
     Harris-Foulkes estimate   =  -21905.62772477 Ry
     estimated scf accuracy    <      25.54195032 Ry

     iteration # 13     ecut=    50.00 Ry     beta= 0.30
     Davidson diagonalization with overlap
     ethr =  2.42E-03,  avg # of iterations =  3.6

     negative rho (up, down):  6.186E-05 0.000E+00

     total cpu time spent up to now is    20565.6 secs

     total energy              =  -21902.22025222 Ry
     Harris-Foulkes estimate   =  -21904.40506996 Ry
     estimated scf accuracy    <      10.88322652 Ry

     iteration # 14     ecut=    50.00 Ry     beta= 0.30
     Davidson diagonalization with overlap
     ethr =  1.03E-03,  avg # of iterations =  6.2

     negative rho (up, down):  3.949E-05 0.000E+00

     total cpu time spent up to now is    21284.5 secs

     total energy              =  -21903.08033272 Ry
     Harris-Foulkes estimate   =  -21904.76850136 Ry
     estimated scf accuracy    <      17.65438760 Ry

     iteration # 15     ecut=    50.00 Ry     beta= 0.30
     Davidson diagonalization with overlap
     ethr =  1.03E-03,  avg # of iterations =  4.6

     negative rho (up, down):  4.063E-05 0.000E+00

     total cpu time spent up to now is    21842.3 secs

     total energy              =  -21903.82016943 Ry
     Harris-Foulkes estimate   =  -21904.14611337 Ry
     estimated scf accuracy    <       1.99566796 Ry

     iteration # 16     ecut=    50.00 Ry     beta= 0.30
     Davidson diagonalization with overlap
     ethr =  1.89E-04,  avg # of iterations =  6.8

     negative rho (up, down):  5.271E-05 0.000E+00

     total cpu time spent up to now is    22551.8 secs

     total energy              =  -21903.73797834 Ry
     Harris-Foulkes estimate   =  -21904.00699013 Ry
     estimated scf accuracy    <       2.31373281 Ry

     iteration # 17     ecut=    50.00 Ry     beta= 0.30
     Davidson diagonalization with overlap
     ethr =  1.89E-04,  avg # of iterations =  3.3

     negative rho (up, down):  7.290E-05 0.000E+00

     total cpu time spent up to now is    23060.0 secs

     total energy              =  -21903.79447173 Ry
     Harris-Foulkes estimate   =  -21903.85510429 Ry
     estimated scf accuracy    <       0.67202956 Ry

     iteration # 18     ecut=    50.00 Ry     beta= 0.30
     Davidson diagonalization with overlap
     ethr =  6.36E-05,  avg # of iterations =  5.6

     negative rho (up, down):  1.182E-04 0.000E+00

     total cpu time spent up to now is    23639.9 secs

     total energy              =  -21903.76701650 Ry
     Harris-Foulkes estimate   =  -21903.82477634 Ry
     estimated scf accuracy    <       0.40612388 Ry

     iteration # 19     ecut=    50.00 Ry     beta= 0.30
     Davidson diagonalization with overlap
     ethr =  3.85E-05,  avg # of iterations =  6.0

     negative rho (up, down):  1.454E-04 0.000E+00

     total cpu time spent up to now is    24252.6 secs

     total energy              =  -21903.75474731 Ry
     Harris-Foulkes estimate   =  -21903.81374041 Ry
     estimated scf accuracy    <       0.89210172 Ry

     iteration # 20     ecut=    50.00 Ry     beta= 0.30
     Davidson diagonalization with overlap
     ethr =  3.85E-05,  avg # of iterations =  3.9

     negative rho (up, down):  2.840E-04 0.000E+00

     total cpu time spent up to now is    24876.0 secs

     total energy              =  -21903.74562764 Ry
     Harris-Foulkes estimate   =  -21903.79532149 Ry
     estimated scf accuracy    <       0.41771676 Ry

     iteration # 21     ecut=    50.00 Ry     beta= 0.30
     Davidson diagonalization with overlap
     ethr =  3.85E-05,  avg # of iterations =  8.0

     negative rho (up, down):  3.038E-04 0.000E+00

     total cpu time spent up to now is    25825.0 secs

     total energy              =  -21903.75306852 Ry
     Harris-Foulkes estimate   =  -21903.79132142 Ry
     estimated scf accuracy    <       0.24228624 Ry

     iteration # 22     ecut=    50.00 Ry     beta= 0.30
     Davidson diagonalization with overlap
     ethr =  2.29E-05,  avg # of iterations =  4.4

     negative rho (up, down):  3.790E-04 0.000E+00

     total cpu time spent up to now is    26504.9 secs

     total energy              =  -21903.76406009 Ry
     Harris-Foulkes estimate   =  -21903.77704776 Ry
     estimated scf accuracy    <       0.12012105 Ry

     iteration # 23     ecut=    50.00 Ry     beta= 0.30
     Davidson diagonalization with overlap
     ethr =  1.14E-05,  avg # of iterations =  8.6

     negative rho (up, down):  4.826E-04 0.000E+00

     total cpu time spent up to now is    27382.8 secs

     total energy              =  -21903.76275303 Ry
     Harris-Foulkes estimate   =  -21903.77190273 Ry
     estimated scf accuracy    <       0.02662143 Ry

     iteration # 24     ecut=    50.00 Ry     beta= 0.30
     Davidson diagonalization with overlap
     ethr =  2.52E-06,  avg # of iterations =  6.8

     negative rho (up, down):  6.524E-04 0.000E+00

     total cpu time spent up to now is    28147.1 secs

     total energy              =  -21903.76311299 Ry
     Harris-Foulkes estimate   =  -21903.77192330 Ry
     estimated scf accuracy    <       0.06386015 Ry

     iteration # 25     ecut=    50.00 Ry     beta= 0.30
     Davidson diagonalization with overlap
     ethr =  2.52E-06,  avg # of iterations =  4.3

     negative rho (up, down):  1.044E-03 0.000E+00

     total cpu time spent up to now is    28691.8 secs

     total energy              =  -21903.76643914 Ry
     Harris-Foulkes estimate   =  -21903.76733655 Ry
     estimated scf accuracy    <       0.00284883 Ry

     iteration # 26     ecut=    50.00 Ry     beta= 0.30
     Davidson diagonalization with overlap
     ethr =  2.70E-07,  avg # of iterations =  6.7

     negative rho (up, down):  1.279E-03 0.000E+00

     total cpu time spent up to now is    29439.0 secs

     total energy              =  -21903.76665251 Ry
     Harris-Foulkes estimate   =  -21903.76692929 Ry
     estimated scf accuracy    <       0.00121371 Ry

     iteration # 27     ecut=    50.00 Ry     beta= 0.30
     Davidson diagonalization with overlap
     ethr =  1.15E-07,  avg # of iterations =  4.6

     negative rho (up, down):  1.537E-03 0.000E+00

     total cpu time spent up to now is    29982.5 secs

     total energy              =  -21903.76673440 Ry
     Harris-Foulkes estimate   =  -21903.76687674 Ry
     estimated scf accuracy    <       0.00157512 Ry

     iteration # 28     ecut=    50.00 Ry     beta= 0.30
     Davidson diagonalization with overlap
     ethr =  1.15E-07,  avg # of iterations =  5.4

     negative rho (up, down):  1.785E-03 0.000E+00

     total cpu time spent up to now is    30558.4 secs

     total energy              =  -21903.76682253 Ry
     Harris-Foulkes estimate   =  -21903.76682943 Ry
     estimated scf accuracy    <       0.00014658 Ry

     iteration # 29     ecut=    50.00 Ry     beta= 0.30
     Davidson diagonalization with overlap
     ethr =  1.39E-08,  avg # of iterations =  3.0

     negative rho (up, down):  1.828E-03 0.000E+00

     total cpu time spent up to now is    31009.3 secs

     total energy              =  -21903.76681185 Ry
     Harris-Foulkes estimate   =  -21903.76684537 Ry
     estimated scf accuracy    <       0.00033336 Ry

     iteration # 30     ecut=    50.00 Ry     beta= 0.30
     Davidson diagonalization with overlap
     ethr =  1.39E-08,  avg # of iterations =  1.6

     negative rho (up, down):  2.028E-03 0.000E+00

     total cpu time spent up to now is    31397.6 secs

     total energy              =  -21903.76682158 Ry
     Harris-Foulkes estimate   =  -21903.76685609 Ry
     estimated scf accuracy    <       0.00106512 Ry

     iteration # 31     ecut=    50.00 Ry     beta= 0.30
     Davidson diagonalization with overlap
     ethr =  1.39E-08,  avg # of iterations =  1.7

     negative rho (up, down):  2.130E-03 0.000E+00

     total cpu time spent up to now is    31782.3 secs

     total energy              =  -21903.76684086 Ry
     Harris-Foulkes estimate   =  -21903.76684278 Ry
     estimated scf accuracy    <       0.00001550 Ry

     iteration # 32     ecut=    50.00 Ry     beta= 0.30
     Davidson diagonalization with overlap
     ethr =  1.47E-09,  avg # of iterations =  3.2

     negative rho (up, down):  2.128E-03 0.000E+00

     total cpu time spent up to now is    32270.5 secs

     total energy              =  -21903.76684139 Ry
     Harris-Foulkes estimate   =  -21903.76684360 Ry
     estimated scf accuracy    <       0.00001196 Ry

     iteration # 33     ecut=    50.00 Ry     beta= 0.30
     Davidson diagonalization with overlap
     ethr =  1.13E-09,  avg # of iterations =  1.5

     negative rho (up, down):  2.180E-03 0.000E+00

     total cpu time spent up to now is    32665.3 secs

     total energy              =  -21903.76684229 Ry
     Harris-Foulkes estimate   =  -21903.76684340 Ry
     estimated scf accuracy    <       0.00001121 Ry

     iteration # 34     ecut=    50.00 Ry     beta= 0.30
     Davidson diagonalization with overlap
     ethr =  1.06E-09,  avg # of iterations =  1.8

     negative rho (up, down):  2.213E-03 0.000E+00

     total cpu time spent up to now is    33057.5 secs

     total energy              =  -21903.76684270 Ry
     Harris-Foulkes estimate   =  -21903.76684298 Ry
     estimated scf accuracy    <       0.00000081 Ry

     iteration # 35     ecut=    50.00 Ry     beta= 0.30
     Davidson diagonalization with overlap
     ethr =  7.71E-11,  avg # of iterations =  2.0

     negative rho (up, down):  2.217E-03 0.000E+00

     total cpu time spent up to now is    33485.2 secs

     total energy              =  -21903.76684271 Ry
     Harris-Foulkes estimate   =  -21903.76684293 Ry
     estimated scf accuracy    <       0.00000155 Ry

     iteration # 36     ecut=    50.00 Ry     beta= 0.30
     Davidson diagonalization with overlap
     ethr =  7.71E-11,  avg # of iterations =  2.4

     negative rho (up, down):  2.227E-03 0.000E+00

     total cpu time spent up to now is    33913.9 secs

     total energy              =  -21903.76684274 Ry
     Harris-Foulkes estimate   =  -21903.76684287 Ry
     estimated scf accuracy    <       0.00000040 Ry

     iteration # 37     ecut=    50.00 Ry     beta= 0.30
     Davidson diagonalization with overlap
     ethr =  3.76E-11,  avg # of iterations =  2.0

     negative rho (up, down):  2.233E-03 0.000E+00

     total cpu time spent up to now is    34341.3 secs

     total energy              =  -21903.76684272 Ry
     Harris-Foulkes estimate   =  -21903.76684279 Ry
     estimated scf accuracy    <       0.00000012 Ry

     iteration # 38     ecut=    50.00 Ry     beta= 0.30
     Davidson diagonalization with overlap
     ethr =  1.17E-11,  avg # of iterations =  2.0

     negative rho (up, down):  2.237E-03 0.000E+00

     total cpu time spent up to now is    34745.0 secs

     total energy              =  -21903.76684269 Ry
     Harris-Foulkes estimate   =  -21903.76684274 Ry
     estimated scf accuracy    <       0.00000012 Ry

     iteration # 39     ecut=    50.00 Ry     beta= 0.30
     Davidson diagonalization with overlap
     ethr =  1.12E-11,  avg # of iterations =  2.0

     negative rho (up, down):  2.238E-03 0.000E+00

     total cpu time spent up to now is    35168.8 secs

     total energy              =  -21903.76684268 Ry
     Harris-Foulkes estimate   =  -21903.76684270 Ry
     estimated scf accuracy    <       0.00000001 Ry

     iteration # 40     ecut=    50.00 Ry     beta= 0.30
     Davidson diagonalization with overlap
     ethr =  1.16E-12,  avg # of iterations =  2.0

     negative rho (up, down):  2.239E-03 0.000E+00

     total cpu time spent up to now is    35634.4 secs

     total energy              =  -21903.76684266 Ry
     Harris-Foulkes estimate   =  -21903.76684269 Ry
     estimated scf accuracy    <       0.00000055 Ry

     iteration # 41     ecut=    50.00 Ry     beta= 0.30
     Davidson diagonalization with overlap
     ethr =  1.16E-12,  avg # of iterations =  1.1

     negative rho (up, down):  2.240E-03 0.000E+00

     total cpu time spent up to now is    36014.5 secs

     total energy              =  -21903.76684266 Ry
     Harris-Foulkes estimate   =  -21903.76684267 Ry
     estimated scf accuracy    <       0.00000002 Ry

     iteration # 42     ecut=    50.00 Ry     beta= 0.30
     Davidson diagonalization with overlap
     ethr =  1.16E-12,  avg # of iterations =  2.0

     negative rho (up, down):  2.241E-03 0.000E+00

     total cpu time spent up to now is    36447.6 secs

     End of self-consistent calculation

          k = 0.0000 0.0000 0.0000 ( 61453 PWs)   bands (ev):

  -107.9050-107.8998-107.8987-107.8986-107.8986-107.8983-107.8983-107.8979
  -107.8960-107.8950-107.8950-107.8949-107.8949-107.8944-107.8944-107.8941
  -107.8936-107.8934-107.8918-107.8890-107.8890-107.8890-107.8886-107.8885
  -107.8885-107.8862-107.8862-107.8844-107.8802-107.8797-107.8797-107.8797
  -107.8797-107.8793-107.8774-107.8772-107.6610-107.6568-107.6568-107.6568
  -107.6554-107.6554-107.6530-107.6509-107.6509-107.6458-107.6407-107.6407
  -107.6407-107.6407-107.6407-107.6407-107.6381-107.6381 -65.3595 -65.3462
   -65.3459 -65.3459 -65.3456 -65.3456 -65.3453 -65.3382 -65.3382 -65.3382
   -65.3379 -65.3379 -65.3376 -65.3376 -65.3375 -65.3342 -65.3342 -65.3340
   -65.3339 -65.3319 -65.3261 -65.3261 -65.3260 -65.3256 -65.3255 -65.3255
   -65.3235 -65.3235 -65.3235 -65.3233 -65.3233 -65.3231 -65.3229 -65.3229
   -65.3203 -65.3203 -65.3198 -65.3197 -65.3141 -65.3141 -65.3141 -65.3137
   -65.3137 -65.3137 -65.3128 -65.3128 -65.3093 -65.3093 -65.3070 -65.3061
   -65.3060 -65.3058 -65.3058 -65.3058 -65.3058 -65.3056 -65.3046 -65.2989
   -65.2989 -65.2978 -65.2978 -65.2978 -65.2975 -65.2975 -65.2975 -65.2956
   -65.2956 -65.2956 -65.2951 -65.2949 -65.2949 -65.2943 -65.2943 -65.2916
   -65.2916 -65.2878 -65.2876 -65.2876 -65.2874 -65.2874 -65.2873 -65.2873
   -65.2873 -65.2871 -65.2869 -65.2867 -65.2867 -65.2841 -65.2812 -65.2812
   -65.2808 -65.2807 -65.2807 -65.2806 -65.2806 -65.2806 -65.2748 -65.2748
   -65.2731 -65.2731 -65.2730 -65.2728 -65.2727 -65.2727 -65.2687 -65.2687
   -65.2621 -65.2621 -65.1141 -65.1138 -65.1137 -65.1127 -65.1127 -65.1127
   -65.1101 -65.1099 -65.1099 -65.1087 -65.1000 -65.1000 -65.1000 -65.1000
   -65.0999 -65.0999 -65.0975 -65.0975 -65.0971 -65.0970 -65.0789 -65.0782
   -65.0782 -65.0769 -65.0769 -65.0763 -65.0652 -65.0652 -65.0647 -65.0647
   -65.0647 -65.0646 -65.0646 -65.0645 -65.0524 -65.0524 -65.0358 -65.0320
   -65.0320 -65.0320 -65.0307 -65.0307 -65.0276 -65.0256 -65.0256 -65.0180
   -65.0132 -65.0132 -65.0132 -65.0131 -65.0131 -65.0131 -65.0107 -65.0107
   -12.4609  -9.7214  -9.7212  -6.1363  -6.1357  -4.2148  -4.1693  -3.5483
    -2.6265  -2.5960  -2.2187  -1.5757  -1.5756  -1.4647  -1.2041  -1.2040
    -1.2040  -1.2039  -1.2039  -1.2038  -0.7994  -0.7991  -0.7991  -0.7991
    -0.7989  -0.7989  -0.6057  -0.3357  -0.3006  -0.2984  -0.2983  -0.2983
    -0.2982  -0.2982  -0.2645   0.1524   0.1524   0.1525   0.1525   0.1525
     0.1538   0.3578   0.3580   0.5024   0.5024   0.5025   0.5027   0.5027
     0.5033   0.6270   0.6270   0.6271   0.6271   0.6271   0.6272   0.6768
     0.6768   0.6768   0.6769   0.6769   0.6771   0.7045   0.7045   0.7183
     0.7183   0.7302   0.7302   0.8259   0.8259   0.8331   0.8331   0.8559
     0.8559   0.8560   0.8560   0.8560   0.8563   0.8633   0.8633   0.8644
     0.8644   0.9169   0.9169   0.9561   0.9561   1.0657   1.0657   1.0695
     1.0695   1.0696   1.0697   1.0697   1.0701   1.1007   1.1007   1.3055
     1.3055   1.3057   1.3060   1.3060   1.3067   1.4339   1.4339   1.4419
     1.4419   1.4575   1.4575   1.4578   1.4578   1.4578   1.4582   1.4955
     1.5028   1.5028   1.5157   1.5708   1.5708   1.5710   1.5712   1.5712
     1.5714   1.5841   1.5841   1.6087   1.6087   1.6409   1.6452   1.6452
     1.6573   1.6573   1.6577   1.6578   1.6578   1.6580   1.6952   1.6952
     1.7089   1.7089   1.7090   1.7090   1.7090   1.7092   1.7277   1.7278
     1.7278   1.7280   1.7280   1.7280   1.7339   1.7339   1.7518   1.8576
     1.8576   1.8589   1.8589   1.8602   1.8602   1.8604   1.8610   1.8723
     1.8723   1.8883   1.8885   1.9042   1.9042   1.9044   1.9044   1.9286
     1.9286   1.9301   1.9302   1.9302   1.9305   1.9305   1.9305   2.1169
     2.1169   2.1256   2.1259   2.1259   2.1274   2.1891   2.1894   2.1894
     2.1895   2.1895   2.1897   2.2434   2.2434   2.2578   2.2578   2.2579
     2.2592   2.2638   2.2638   2.2682   2.2682   2.2899   2.2899   2.3265
     2.3562   2.3562   2.3745   2.3745   2.3860   2.3860   2.3958   2.3960
     2.3960   2.3970   2.4197   2.4198   2.4198   2.4201   2.4201   2.4201
     2.4231   2.4231   2.4237   2.4237   2.4496   2.4497   2.4944   2.4944
     2.5584   2.5584   2.5584   2.5585   2.5585   2.5585   2.6166   2.6170
     2.6170   2.6173   2.6174   2.6174   2.6175   2.6175   2.6175   2.6181
     2.6225   2.6225   2.6832   2.6832   2.6866   2.6866   2.6866   2.6868
     2.6869   2.6869   2.6979   2.6980   2.6980   2.6982   2.6982   2.6982
     2.7227   2.7227   2.7227   2.7229   2.7229   2.7230   2.7573   2.7573
     2.7630   2.7630   2.7948   2.7949   2.7949   2.7954   2.7954   2.7954
     2.7962   2.7962   2.8186   2.8187   2.8187   2.8190   2.8190   2.8191
     2.8480   2.8480   2.8489   2.8489   2.8522   2.8522   2.8699   2.8699
     2.8864   2.8865   2.8865   2.8867   2.8867   2.8868   2.9132   2.9133
     2.9133   2.9135   2.9135   2.9162   2.9270   2.9270   2.9628   2.9630
     2.9630   2.9632   2.9632   2.9633   3.7734   3.8980   3.8982   3.8982
     3.9054   3.9111   3.9111   4.3554   5.3327   5.3327   5.3340   5.3446
     5.3530   5.3530   7.0670   7.0680   7.0681   7.1136   7.1573   7.1574
     7.2490   7.5368   7.5370   7.7552   7.7552   7.7556   7.7556   7.7707
     7.7707   8.1500   8.1500   8.1529   8.1682   8.1682   8.5243   8.5710
     8.5714   8.7726   8.8287   8.8289   8.8476   8.8477   8.9170   8.9170
     8.9629   9.1558   9.4422   9.4422   9.4483   9.4483   9.4927   9.7816
     9.7818   9.8271   9.8272   9.8846  10.4721  10.5516  10.6134  10.6134
    10.6200  10.6200  10.7467  10.7467  10.7976  10.7976  10.7996  11.0205
    11.2002  11.2002  11.2534  11.2534  11.2580  11.2833  11.2833  11.3478
    11.3810  11.7146  11.7146  11.7668  11.7668  11.7681  11.8221  11.8221
    11.8312  11.8319  11.8319  11.9357  11.9357  11.9860  12.0907  12.1900
    12.1900  12.2248  12.2821  12.2821  12.3361  12.4569  12.4570  12.6633
    12.9248  12.9322  12.9326  12.9569  12.9634  12.9703  12.9704  13.0152
    13.0586  13.0695

          k = 0.0000 0.2887 0.0000 ( 61417 PWs)   bands (ev):

  -107.9045-107.9008-107.8995-107.8993-107.8989-107.8974-107.8972-107.8967
  -107.8964-107.8955-107.8954-107.8949-107.8949-107.8945-107.8943-107.8937
  -107.8934-107.8932-107.8918-107.8904-107.8894-107.8893-107.8880-107.8879
  -107.8875-107.8864-107.8864-107.8840-107.8813-107.8803-107.8803-107.8790
  -107.8789-107.8785-107.8776-107.8774-107.6606-107.6580-107.6569-107.6563
  -107.6553-107.6552-107.6529-107.6509-107.6509-107.6454-107.6424-107.6413
  -107.6413-107.6398-107.6398-107.6394-107.6384-107.6384 -65.3580 -65.3489
   -65.3484 -65.3472 -65.3460 -65.3460 -65.3455 -65.3454 -65.3422 -65.3422
   -65.3415 -65.3415 -65.3396 -65.3396 -65.3350 -65.3335 -65.3335 -65.3314
   -65.3309 -65.3298 -65.3297 -65.3297 -65.3296 -65.3294 -65.3272 -65.3272
   -65.3269 -65.3267 -65.3225 -65.3225 -65.3194 -65.3194 -65.3192 -65.3181
   -65.3180 -65.3174 -65.3167 -65.3167 -65.3146 -65.3145 -65.3121 -65.3121
   -65.3088 -65.3085 -65.3084 -65.3080 -65.3072 -65.3072 -65.3065 -65.3053
   -65.3052 -65.3041 -65.3039 -65.3026 -65.3024 -65.3023 -65.3016 -65.3008
   -65.3007 -65.2988 -65.2986 -65.2985 -65.2984 -65.2982 -65.2982 -65.2956
   -65.2956 -65.2934 -65.2933 -65.2927 -65.2927 -65.2911 -65.2910 -65.2907
   -65.2902 -65.2900 -65.2900 -65.2897 -65.2896 -65.2895 -65.2894 -65.2877
   -65.2877 -65.2859 -65.2858 -65.2855 -65.2847 -65.2842 -65.2837 -65.2836
   -65.2835 -65.2829 -65.2824 -65.2801 -65.2800 -65.2784 -65.2768 -65.2768
   -65.2767 -65.2758 -65.2755 -65.2732 -65.2732 -65.2724 -65.2698 -65.2693
   -65.2662 -65.2631 -65.1246 -65.1192 -65.1192 -65.1175 -65.1173 -65.1115
   -65.1059 -65.1059 -65.1058 -65.1057 -65.1048 -65.1047 -65.1001 -65.1000
   -65.0969 -65.0928 -65.0928 -65.0871 -65.0870 -65.0842 -65.0821 -65.0816
   -65.0804 -65.0775 -65.0773 -65.0734 -65.0694 -65.0687 -65.0686 -65.0676
   -65.0663 -65.0646 -65.0645 -65.0606 -65.0567 -65.0535 -65.0355 -65.0331
   -65.0321 -65.0315 -65.0306 -65.0306 -65.0275 -65.0256 -65.0256 -65.0175
   -65.0147 -65.0137 -65.0137 -65.0123 -65.0123 -65.0120 -65.0109 -65.0109
   -12.4601  -9.7250  -9.7219  -6.1391  -6.1316  -4.1884  -3.9561  -3.3391
    -2.5990  -2.3949  -2.3529  -2.2223  -1.8039  -1.6422  -1.6421  -1.6240
    -1.5826  -1.2768  -1.1573  -1.1571  -1.0016  -0.5859  -0.5859  -0.4957
    -0.4934  -0.4480  -0.3747  -0.3015  -0.2993  -0.2918  -0.1640  -0.1310
    -0.1266  -0.0288  -0.0242  -0.0241   0.1526   0.1535   0.1823   0.2478
     0.2480   0.3177   0.3582   0.4321   0.4365   0.4661   0.4662   0.4933
     0.5021   0.5022   0.5265   0.5265   0.5736   0.5742   0.5758   0.5761
     0.5888   0.5888   0.6286   0.6286   0.6657   0.6657   0.6938   0.6938
     0.7030   0.7446   0.7448   0.7593   0.7593   0.7820   0.7821   0.7949
     0.7949   0.8294   0.8294   0.8693   0.9381   0.9381   0.9452   0.9685
     0.9685   0.9831   0.9832   1.0195   1.0196   1.0534   1.0563   1.0563
     1.1180   1.1180   1.1451   1.1455   1.1659   1.1660   1.2110   1.2110
     1.2281   1.2478   1.2552   1.2553   1.2835   1.3228   1.3229   1.3431
     1.3431   1.3493   1.3873   1.3879   1.3976   1.4230   1.4231   1.4297
     1.4629   1.4630   1.4921   1.5289   1.5404   1.5511   1.5511   1.5638
     1.5643   1.5644   1.6029   1.6035   1.6080   1.6207   1.6207   1.6362
     1.6418   1.6418   1.6580   1.6611   1.6722   1.6788   1.6908   1.6998
     1.6998   1.7102   1.7151   1.7159   1.7166   1.7344   1.7346   1.7377
     1.7377   1.7419   1.7621   1.7643   1.7756   1.7877   1.7881   1.7963
     1.7978   1.8122   1.8124   1.8489   1.8489   1.8570   1.8571   1.8588
     1.8729   1.8817   1.8818   1.8824   1.8936   1.8959   1.8988   1.9132
     1.9531   1.9568   1.9618   1.9676   1.9677   1.9693   1.9787   1.9921
     1.9980   1.9986   1.9997   2.0211   2.0212   2.0346   2.0708   2.0725
     2.1046   2.1052   2.1130   2.1139   2.1190   2.1191   2.1821   2.1976
     2.2237   2.2246   2.2328   2.2329   2.2451   2.2451   2.2640   2.2733
     2.2821   2.2854   2.2867   2.2933   2.3214   2.3216   2.3486   2.3529
     2.3604   2.3635   2.3645   2.3726   2.3910   2.3982   2.4037   2.4056
     2.4133   2.4238   2.4410   2.4584   2.4593   2.4637   2.4640   2.4801
     2.4846   2.4850   2.5008   2.5046   2.5047   2.5059   2.5136   2.5176
     2.5424   2.5526   2.5892   2.5924   2.5989   2.6268   2.6274   2.6351
     2.6387   2.6389   2.6398   2.6424   2.6634   2.6636   2.6668   2.6789
     2.6805   2.6838   2.6869   2.6869   2.7125   2.7319   2.7319   2.7368
     2.7462   2.7462   2.7681   2.7684   2.7744   2.7752   2.8181   2.8191
     2.8191   2.8305   2.8305   2.8319   2.8434   2.8441   2.8529   2.8542
     2.8543   2.8558   2.8629   2.8630   2.8636   2.8700   2.8783   2.8783
     2.8956   2.9087   2.9087   2.9095   2.9105   2.9170   2.9184   2.9185
     2.9404   2.9499   2.9539   2.9604   2.9604   2.9653   2.9781   2.9782
     3.0555   3.0675   3.1039   3.2039   3.2261   3.2261   3.2976   3.3868
     3.3868   3.6405   3.6937   3.6947   3.6973   3.7017   4.0064   4.1848
     4.3811   4.6695   4.6697   4.8689   4.9666   4.9724   5.0187   5.7524
     5.7524   5.9661   6.1302   6.1339   6.1521   6.1523   6.4076   6.6625
     6.6886   6.8358   6.8377   7.2733   7.4495   7.4728   7.4983   7.6526
     7.6873   7.6947   7.8843   7.9276   8.1470   8.1499   8.2495   8.2905
     8.3477   8.6211   8.6218   8.7502   8.8025   8.8959   9.1725   9.1732
     9.2825   9.3397   9.5471   9.5687   9.7515   9.7785   9.9042   9.9232
     9.9294   9.9643   9.9875  10.0312  10.2583  10.3226  10.3229  10.4481
    10.4853  10.4897  10.5749  10.5852  10.6620  10.7049  10.7104  10.7815
    10.8303  10.8730  10.8839  11.1029  11.1099  11.1974  11.3776  11.4122
    11.4158  11.4479  11.4563  11.5588  11.6561  11.7370  11.8904  11.9843
    12.0445  12.1198  12.1677  12.2560  12.2719  12.3567  12.4787  12.5034
    12.5072  12.5471  12.5669  12.6491  12.7764  12.7784  12.8256  12.8397
    12.9460  12.9511  13.0664  13.0864  13.1314  13.1589  13.1657  13.2513
    13.3680  13.4523

          k = 0.0000-0.5774 0.0000 ( 61408 PWs)   bands (ev):

  -107.9031-107.9027-107.8997-107.8996-107.8983-107.8975-107.8965-107.8961
  -107.8959-107.8959-107.8958-107.8955-107.8954-107.8944-107.8938-107.8937
  -107.8935-107.8922-107.8919-107.8917-107.8896-107.8896-107.8873-107.8873
  -107.8872-107.8868-107.8867-107.8830-107.8827-107.8805-107.8805-107.8785
  -107.8782-107.8782-107.8781-107.8776-107.6599-107.6590-107.6571-107.6563
  -107.6551-107.6550-107.6528-107.6510-107.6508-107.6441-107.6441-107.6416
  -107.6415-107.6390-107.6390-107.6390-107.6390-107.6389 -65.3542 -65.3539
   -65.3515 -65.3501 -65.3461 -65.3461 -65.3449 -65.3448 -65.3445 -65.3444
   -65.3432 -65.3431 -65.3430 -65.3428 -65.3391 -65.3326 -65.3321 -65.3320
   -65.3315 -65.3315 -65.3313 -65.3313 -65.3304 -65.3302 -65.3278 -65.3278
   -65.3276 -65.3274 -65.3203 -65.3202 -65.3191 -65.3190 -65.3187 -65.3186
   -65.3171 -65.3135 -65.3134 -65.3102 -65.3097 -65.3096 -65.3096 -65.3094
   -65.3093 -65.3088 -65.3067 -65.3066 -65.3061 -65.3060 -65.3058 -65.3057
   -65.3027 -65.3027 -65.3026 -65.3017 -65.3017 -65.3015 -65.3013 -65.2999
   -65.2967 -65.2965 -65.2962 -65.2961 -65.2959 -65.2954 -65.2952 -65.2952
   -65.2952 -65.2951 -65.2950 -65.2947 -65.2921 -65.2920 -65.2917 -65.2917
   -65.2911 -65.2908 -65.2890 -65.2889 -65.2881 -65.2879 -65.2879 -65.2877
   -65.2866 -65.2865 -65.2862 -65.2857 -65.2847 -65.2847 -65.2846 -65.2840
   -65.2840 -65.2837 -65.2837 -65.2807 -65.2806 -65.2806 -65.2805 -65.2790
   -65.2786 -65.2768 -65.2767 -65.2765 -65.2746 -65.2745 -65.2728 -65.2727
   -65.2658 -65.2656 -65.1287 -65.1215 -65.1214 -65.1201 -65.1199 -65.1157
   -65.1078 -65.1078 -65.1078 -65.1077 -65.1021 -65.1020 -65.0906 -65.0903
   -65.0892 -65.0891 -65.0891 -65.0889 -65.0821 -65.0816 -65.0811 -65.0783
   -65.0776 -65.0767 -65.0767 -65.0767 -65.0766 -65.0701 -65.0687 -65.0686
   -65.0684 -65.0683 -65.0656 -65.0655 -65.0565 -65.0565 -65.0348 -65.0340
   -65.0322 -65.0315 -65.0304 -65.0304 -65.0275 -65.0256 -65.0255 -65.0164
   -65.0163 -65.0139 -65.0139 -65.0116 -65.0116 -65.0115 -65.0115 -65.0115
   -12.4592  -9.7285  -9.7227  -6.1424  -6.1269  -4.1615  -3.3305  -3.3303
    -2.7309  -2.7307  -2.5711  -2.2260  -1.8218  -1.8208  -1.7978  -1.7978
    -1.6712  -1.5897  -1.2871  -1.2868  -0.7645  -0.7580  -0.5658  -0.5641
    -0.3043  -0.1853  -0.0016   0.0014   0.0113   0.0187   0.0188   0.0189
     0.0189   0.1067   0.1804   0.1808   0.1882   0.1904   0.1980   0.2167
     0.2167   0.2168   0.2168   0.2728   0.2730   0.2730   0.2730   0.2782
     0.3583   0.3996   0.4378   0.4379   0.4380   0.4381   0.4786   0.5200
     0.6148   0.6148   0.6149   0.6149   0.6302   0.6524   0.6529   0.6695
     0.6695   0.6696   0.6696   0.7889   0.7890   0.7890   0.7891   0.8117
     0.8119   0.9012   0.9136   0.9136   0.9137   0.9137   0.9490   0.9490
     0.9937   0.9937   1.0656   1.0656   1.0658   1.0658   1.1258   1.1258
     1.1549   1.1551   1.1765   1.1765   1.1769   1.1769   1.1934   1.1934
     1.2305   1.2315   1.2826   1.2942   1.2945   1.3226   1.3228   1.3438
     1.3443   1.3519   1.3519   1.3522   1.3522   1.4089   1.4093   1.4140
     1.4140   1.4143   1.4143   1.4652   1.4665   1.4886   1.4886   1.4887
     1.4888   1.4985   1.5002   1.5002   1.5606   1.5625   1.5838   1.5847
     1.5855   1.6018   1.6036   1.6357   1.6365   1.6365   1.6367   1.6368
     1.6510   1.6523   1.6997   1.6998   1.7103   1.7105   1.7235   1.7235
     1.7579   1.7581   1.7581   1.7582   1.7809   1.7814   1.7815   1.7816
     1.7827   1.8118   1.8120   1.8122   1.8124   1.8434   1.8437   1.8635
     1.8726   1.8728   1.9352   1.9357   1.9414   1.9415   1.9461   1.9462
     1.9465   1.9466   1.9553   1.9559   1.9617   1.9618   1.9721   1.9890
     1.9897   1.9975   1.9978   1.9980   1.9982   2.0664   2.0690   2.0775
     2.0775   2.1503   2.1590   2.1601   2.1604   2.1650   2.1676   2.1692
     2.1692   2.1701   2.1741   2.1744   2.1990   2.2006   2.2294   2.2396
     2.2402   2.2403   2.2432   2.2596   2.2596   2.2597   2.2598   2.2632
     2.2638   2.2856   2.2858   2.2923   2.2926   2.3270   2.3691   2.3845
     2.4157   2.4157   2.4284   2.4435   2.4436   2.4443   2.4458   2.4759
     2.4767   2.4798   2.4942   2.5158   2.5166   2.5192   2.5194   2.5305
     2.5432   2.5494   2.5560   2.5561   2.5562   2.5563   2.5694   2.5901
     2.5901   2.5912   2.5924   2.6459   2.6460   2.6461   2.6464   2.6564
     2.6571   2.6830   2.6833   2.7131   2.7132   2.7159   2.7163   2.7436
     2.7436   2.7690   2.7714   2.7741   2.7928   2.8326   2.8339   2.8440
     2.8445   2.8541   2.8545   2.8679   2.8818   2.8819   2.8864   2.8866
     2.8876   2.8880   2.9032   2.9082   2.9082   2.9084   2.9085   2.9254
     2.9269   2.9272   2.9317   2.9352   2.9519   2.9550   2.9751   2.9752
     2.9756   2.9761   2.9831   2.9882   3.0117   3.0252   3.0253   3.0258
     3.0258   3.1352   3.1464   3.6663   3.6742   3.6765   3.6798   4.1936
     4.2368   4.2368   4.2370   4.2370   4.5079   4.5081   4.5084   4.5085
     4.8595   4.8615   4.8708   4.9756   4.9931   5.0658   5.0669   5.0675
     5.0681   5.3528   5.6922   5.9443   5.9671   5.9710   6.0461   6.0508
     6.0518   6.0536   6.1094   6.5184   6.5482   7.2980   7.3542   7.3616
     7.3621   7.4415   7.6069   7.9632   7.9824   8.0760   8.2188   8.3569
     8.4838   8.4848   8.4860   8.4961   8.8572   8.8789   8.8964   9.1334
     9.1346   9.1347   9.1399   9.2760   9.4566   9.5625   9.6953   9.7628
     9.7641   9.7899   9.7975   9.8409   9.8611  10.2369  10.3147  10.3206
    10.3792  10.4175  10.4356  10.4388  10.4512  10.8109  10.8820  11.0223
    11.1108  11.1954  11.2283  11.2344  11.2872  11.3237  11.3584  11.3825
    11.4584  11.5247  11.6472  12.0194  12.0929  12.1372  12.1461  12.1929
    12.2192  12.2850  12.4301  12.4871  12.7105  12.8012  12.8234  12.9222
    12.9313  12.9701  12.9993  13.0122  13.0362  13.1618  13.1694  13.1790
    13.1832  13.2385  13.2679  13.3571  13.3963  13.5747  13.6053  13.6085
    13.6566  13.7514

          k = 0.2500-0.7217 0.0000 ( 61343 PWs)   bands (ev):

  -107.9034-107.9017-107.9013-107.8986-107.8976-107.8975-107.8972-107.8966
  -107.8962-107.8958-107.8958-107.8953-107.8949-107.8943-107.8940-107.8936
  -107.8935-107.8925-107.8918-107.8911-107.8909-107.8883-107.8880-107.8873
  -107.8872-107.8868-107.8866-107.8832-107.8820-107.8817-107.8793-107.8790
  -107.8784-107.8781-107.8780-107.8776-107.6600-107.6588-107.6575-107.6559
  -107.6552-107.6550-107.6528-107.6510-107.6508-107.6445-107.6430-107.6430
  -107.6401-107.6401-107.6390-107.6390-107.6390-107.6386 -65.3553 -65.3507
   -65.3504 -65.3495 -65.3493 -65.3482 -65.3480 -65.3466 -65.3449 -65.3433
   -65.3431 -65.3420 -65.3392 -65.3373 -65.3369 -65.3369 -65.3367 -65.3342
   -65.3310 -65.3306 -65.3305 -65.3303 -65.3301 -65.3286 -65.3284 -65.3275
   -65.3266 -65.3265 -65.3237 -65.3234 -65.3183 -65.3181 -65.3177 -65.3170
   -65.3145 -65.3143 -65.3135 -65.3133 -65.3131 -65.3101 -65.3096 -65.3094
   -65.3084 -65.3077 -65.3074 -65.3073 -65.3063 -65.3034 -65.3032 -65.3031
   -65.3029 -65.3029 -65.3028 -65.3014 -65.3012 -65.3010 -65.3008 -65.2992
   -65.2991 -65.2978 -65.2976 -65.2973 -65.2972 -65.2967 -65.2950 -65.2938
   -65.2937 -65.2936 -65.2934 -65.2929 -65.2927 -65.2920 -65.2919 -65.2918
   -65.2916 -65.2903 -65.2902 -65.2894 -65.2888 -65.2887 -65.2883 -65.2869
   -65.2866 -65.2859 -65.2858 -65.2857 -65.2856 -65.2856 -65.2854 -65.2853
   -65.2834 -65.2832 -65.2828 -65.2809 -65.2807 -65.2799 -65.2798 -65.2797
   -65.2789 -65.2788 -65.2766 -65.2755 -65.2755 -65.2746 -65.2710 -65.2691
   -65.2690 -65.2653 -65.1268 -65.1260 -65.1235 -65.1169 -65.1135 -65.1134
   -65.1134 -65.1123 -65.1106 -65.1040 -65.1001 -65.1000 -65.0937 -65.0919
   -65.0907 -65.0902 -65.0856 -65.0845 -65.0840 -65.0833 -65.0805 -65.0785
   -65.0776 -65.0776 -65.0773 -65.0728 -65.0725 -65.0719 -65.0719 -65.0710
   -65.0710 -65.0685 -65.0644 -65.0599 -65.0598 -65.0558 -65.0349 -65.0338
   -65.0325 -65.0312 -65.0305 -65.0304 -65.0275 -65.0257 -65.0255 -65.0167
   -65.0153 -65.0153 -65.0126 -65.0125 -65.0116 -65.0115 -65.0115 -65.0111
   -12.4592  -9.7271  -9.7241  -6.1385  -6.1308  -4.1617  -3.5360  -2.9297
    -2.7298  -2.7297  -2.5709  -2.2258  -2.1551  -2.1550  -2.0062  -1.6526
    -1.6113  -1.2962  -1.2953  -0.9224  -0.7191  -0.7190  -0.3701  -0.3681
    -0.3583  -0.3234  -0.2738  -0.1282  -0.1282  -0.1188   0.0472   0.0476
     0.0664   0.0665   0.0826   0.1325   0.1448   0.1449   0.1619   0.2605
     0.2642   0.2677   0.2677   0.2967   0.3380   0.3427   0.3446   0.4059
     0.4061   0.4179   0.4287   0.4559   0.4560   0.4590   0.4777   0.4782
     0.5467   0.5468   0.5710   0.5733   0.6035   0.6036   0.6281   0.6375
     0.6376   0.7068   0.7069   0.7329   0.7556   0.7655   0.7656   0.8412
     0.8424   0.8925   0.9119   0.9120   0.9419   0.9420   0.9987   1.0080
     1.0081   1.0233   1.0233   1.0385   1.0762   1.1039   1.1040   1.1460
     1.1461   1.1737   1.1794   1.1796   1.1807   1.1968   1.1970   1.2571
     1.2574   1.2598   1.2599   1.2625   1.2756   1.2920   1.2930   1.3066
     1.3068   1.3345   1.3351   1.3581   1.3607   1.3610   1.3801   1.4036
     1.4446   1.4529   1.4531   1.4536   1.4542   1.4833   1.5023   1.5066
     1.5070   1.5437   1.5437   1.5450   1.5476   1.5537   1.5767   1.5981
     1.5983   1.6157   1.6158   1.6427   1.6432   1.6520   1.6521   1.6662
     1.6666   1.6800   1.6802   1.6978   1.6981   1.7123   1.7215   1.7453
     1.7607   1.7618   1.7630   1.7813   1.7840   1.7844   1.7910   1.7997
     1.8000   1.8084   1.8085   1.8226   1.8285   1.8287   1.8289   1.8378
     1.8509   1.8557   1.8794   1.8973   1.8981   1.9068   1.9086   1.9092
     1.9153   1.9166   1.9168   1.9194   1.9247   1.9307   1.9324   1.9332
     1.9925   1.9932   2.0541   2.0546   2.0636   2.0672   2.0673   2.0725
     2.0951   2.0952   2.1154   2.1173   2.1189   2.1378   2.1539   2.1549
     2.1857   2.1869   2.1975   2.2278   2.2281   2.2309   2.2313   2.2353
     2.2373   2.2375   2.2438   2.2496   2.2578   2.2579   2.2982   2.3159
     2.3194   2.3227   2.3241   2.3281   2.3383   2.3441   2.3568   2.3650
     2.3780   2.3864   2.3901   2.4204   2.4246   2.4326   2.4404   2.4464
     2.4502   2.4534   2.4837   2.4936   2.4980   2.4986   2.5253   2.5255
     2.5466   2.5532   2.5539   2.5721   2.5727   2.5957   2.5959   2.5965
     2.6004   2.6026   2.6164   2.6167   2.6211   2.6266   2.6290   2.6459
     2.6846   2.6921   2.6923   2.6939   2.7426   2.7428   2.7520   2.7530
     2.7848   2.7979   2.7982   2.8037   2.8039   2.8195   2.8220   2.8483
     2.8487   2.8488   2.8586   2.8587   2.8707   2.8721   2.8732   2.8733
     2.8749   2.8829   2.8830   2.8834   2.8861   2.9008   2.9012   2.9167
     2.9172   2.9204   2.9274   2.9274   2.9388   2.9550   2.9596   2.9655
     2.9657   2.9830   3.0152   3.0154   3.0252   3.0468   3.0471   3.1998
     3.2029   3.3144   3.3144   3.4170   3.4172   3.5167   3.7423   3.7435
     4.1198   4.1279   4.2256   4.2257   4.2384   4.5016   4.6135   4.6167
     4.6340   4.6341   4.7515   5.0805   5.1081   5.1088   5.5510   5.5928
     5.6085   5.6445   5.8441   5.8655   5.8669   5.9980   6.0020   6.0888
     6.1592   6.5330   6.6125   6.6139   6.7893   6.8375   6.9354   6.9892
     6.9898   7.2885   7.4250   7.4587   7.5564   7.7639   7.8107   7.9177
     8.4077   8.4095   8.4579   8.5133   8.7037   9.0527   9.0751   9.1152
     9.1864   9.2665   9.3319   9.4218   9.4290   9.5830   9.6143   9.6487
     9.7641   9.7997  10.0067  10.1118  10.1242  10.3040  10.3572  10.4712
    10.4872  10.5523  10.6225  10.7493  10.7797  11.0106  11.0932  11.1501
    11.2456  11.3007  11.3781  11.4177  11.4231  11.5786  11.6165  11.6478
    11.6646  11.7395  11.7838  11.8314  11.9451  12.0517  12.0640  12.1912
    12.2566  12.3126  12.3303  12.3634  12.4293  12.4373  12.5023  12.5678
    12.6626  12.6915  12.7757  12.9013  12.9250  12.9547  13.1299  13.2123
    13.2456  13.2891  13.3490  13.3662  13.4420  13.4599  13.5309  13.5983
    13.6347  13.6556

          k =-0.2500 0.1443 0.0000 ( 61417 PWs)   bands (ev):

  -107.9045-107.9008-107.8995-107.8993-107.8989-107.8974-107.8972-107.8967
  -107.8964-107.8955-107.8954-107.8949-107.8949-107.8945-107.8943-107.8937
  -107.8934-107.8932-107.8918-107.8904-107.8894-107.8893-107.8880-107.8879
  -107.8875-107.8864-107.8864-107.8840-107.8813-107.8803-107.8803-107.8790
  -107.8789-107.8785-107.8776-107.8774-107.6606-107.6580-107.6569-107.6563
  -107.6553-107.6552-107.6529-107.6510-107.6509-107.6454-107.6424-107.6413
  -107.6413-107.6398-107.6398-107.6394-107.6384-107.6384 -65.3580 -65.3489
   -65.3484 -65.3472 -65.3460 -65.3460 -65.3455 -65.3454 -65.3422 -65.3422
   -65.3415 -65.3415 -65.3396 -65.3396 -65.3350 -65.3335 -65.3335 -65.3314
   -65.3309 -65.3298 -65.3297 -65.3297 -65.3296 -65.3294 -65.3272 -65.3272
   -65.3269 -65.3267 -65.3225 -65.3225 -65.3194 -65.3194 -65.3192 -65.3181
   -65.3180 -65.3174 -65.3167 -65.3167 -65.3146 -65.3145 -65.3121 -65.3121
   -65.3088 -65.3085 -65.3084 -65.3080 -65.3072 -65.3072 -65.3065 -65.3053
   -65.3052 -65.3041 -65.3039 -65.3026 -65.3024 -65.3023 -65.3016 -65.3008
   -65.3007 -65.2988 -65.2986 -65.2985 -65.2984 -65.2982 -65.2982 -65.2956
   -65.2956 -65.2934 -65.2933 -65.2927 -65.2927 -65.2911 -65.2910 -65.2907
   -65.2902 -65.2900 -65.2900 -65.2897 -65.2896 -65.2895 -65.2894 -65.2877
   -65.2877 -65.2859 -65.2858 -65.2855 -65.2847 -65.2842 -65.2837 -65.2836
   -65.2835 -65.2829 -65.2824 -65.2801 -65.2800 -65.2784 -65.2768 -65.2768
   -65.2767 -65.2758 -65.2755 -65.2732 -65.2732 -65.2724 -65.2698 -65.2693
   -65.2662 -65.2631 -65.1246 -65.1192 -65.1192 -65.1175 -65.1173 -65.1115
   -65.1059 -65.1059 -65.1058 -65.1057 -65.1048 -65.1047 -65.1001 -65.1000
   -65.0969 -65.0928 -65.0928 -65.0871 -65.0870 -65.0842 -65.0821 -65.0816
   -65.0804 -65.0775 -65.0773 -65.0734 -65.0694 -65.0687 -65.0686 -65.0676
   -65.0663 -65.0646 -65.0646 -65.0606 -65.0567 -65.0535 -65.0355 -65.0331
   -65.0321 -65.0315 -65.0306 -65.0305 -65.0275 -65.0256 -65.0255 -65.0175
   -65.0147 -65.0137 -65.0137 -65.0123 -65.0123 -65.0120 -65.0109 -65.0109
   -12.4601  -9.7248  -9.7221  -6.1395  -6.1312  -4.1884  -3.9561  -3.3391
    -2.5990  -2.3949  -2.3529  -2.2223  -1.8039  -1.6422  -1.6421  -1.6240
    -1.5826  -1.2768  -1.1573  -1.1571  -1.0016  -0.5859  -0.5859  -0.4957
    -0.4934  -0.4480  -0.3747  -0.3015  -0.2993  -0.2918  -0.1640  -0.1310
    -0.1266  -0.0288  -0.0242  -0.0241   0.1526   0.1535   0.1823   0.2478
     0.2480   0.3179   0.3580   0.4321   0.4365   0.4661   0.4662   0.4933
     0.5021   0.5022   0.5265   0.5265   0.5736   0.5742   0.5758   0.5761
     0.5888   0.5888   0.6286   0.6286   0.6657   0.6657   0.6938   0.6938
     0.7030   0.7446   0.7448   0.7593   0.7593   0.7820   0.7821   0.7949
     0.7949   0.8294   0.8294   0.8693   0.9381   0.9381   0.9452   0.9685
     0.9685   0.9831   0.9832   1.0195   1.0196   1.0534   1.0563   1.0563
     1.1180   1.1180   1.1451   1.1455   1.1659   1.1660   1.2110   1.2110
     1.2281   1.2478   1.2552   1.2553   1.2835   1.3228   1.3229   1.3431
     1.3431   1.3493   1.3873   1.3879   1.3976   1.4230   1.4231   1.4297
     1.4629   1.4630   1.4921   1.5289   1.5404   1.5511   1.5511   1.5638
     1.5643   1.5644   1.6029   1.6035   1.6080   1.6207   1.6207   1.6362
     1.6418   1.6418   1.6580   1.6611   1.6722   1.6788   1.6908   1.6998
     1.6998   1.7102   1.7151   1.7159   1.7166   1.7344   1.7346   1.7377
     1.7377   1.7419   1.7621   1.7643   1.7756   1.7877   1.7881   1.7963
     1.7978   1.8122   1.8124   1.8489   1.8489   1.8570   1.8571   1.8588
     1.8729   1.8817   1.8818   1.8824   1.8936   1.8959   1.8988   1.9132
     1.9531   1.9568   1.9618   1.9676   1.9677   1.9693   1.9787   1.9921
     1.9980   1.9986   1.9997   2.0211   2.0212   2.0346   2.0708   2.0725
     2.1046   2.1052   2.1130   2.1139   2.1190   2.1191   2.1821   2.1976
     2.2237   2.2246   2.2328   2.2329   2.2451   2.2451   2.2640   2.2733
     2.2821   2.2854   2.2867   2.2933   2.3214   2.3215   2.3486   2.3529
     2.3604   2.3635   2.3645   2.3726   2.3910   2.3982   2.4037   2.4056
     2.4133   2.4238   2.4410   2.4583   2.4593   2.4637   2.4640   2.4801
     2.4846   2.4850   2.5008   2.5046   2.5047   2.5059   2.5136   2.5176
     2.5424   2.5526   2.5892   2.5924   2.5989   2.6268   2.6274   2.6351
     2.6387   2.6389   2.6398   2.6424   2.6634   2.6636   2.6669   2.6789
     2.6805   2.6838   2.6869   2.6869   2.7125   2.7319   2.7319   2.7368
     2.7462   2.7462   2.7681   2.7684   2.7744   2.7752   2.8181   2.8191
     2.8191   2.8305   2.8305   2.8319   2.8434   2.8441   2.8529   2.8542
     2.8543   2.8558   2.8629   2.8630   2.8636   2.8700   2.8783   2.8783
     2.8956   2.9087   2.9087   2.9095   2.9105   2.9170   2.9184   2.9185
     2.9404   2.9499   2.9539   2.9604   2.9604   2.9653   2.9781   2.9782
     3.0555   3.0675   3.1039   3.2039   3.2261   3.2261   3.2976   3.3868
     3.3868   3.6405   3.6937   3.6947   3.6973   3.7017   4.0064   4.1848
     4.3811   4.6695   4.6697   4.8689   4.9666   4.9724   5.0187   5.7524
     5.7524   5.9661   6.1302   6.1339   6.1521   6.1523   6.4076   6.6625
     6.6886   6.8358   6.8377   7.2733   7.4494   7.4729   7.4982   7.6526
     7.6873   7.6947   7.8843   7.9276   8.1470   8.1499   8.2495   8.2905
     8.3477   8.6211   8.6218   8.7502   8.8025   8.8958   9.1725   9.1732
     9.2825   9.3397   9.5471   9.5687   9.7516   9.7785   9.9042   9.9232
     9.9294   9.9643   9.9875  10.0312  10.2583  10.3226  10.3229  10.4481
    10.4853  10.4897  10.5749  10.5852  10.6620  10.7049  10.7104  10.7815
    10.8303  10.8730  10.8839  11.1029  11.1100  11.1974  11.3776  11.4122
    11.4158  11.4479  11.4563  11.5588  11.6561  11.7370  11.8905  11.9843
    12.0444  12.1198  12.1677  12.2560  12.2719  12.3567  12.4787  12.5034
    12.5072  12.5471  12.5669  12.6491  12.7764  12.7784  12.8255  12.8398
    12.9461  12.9511  13.0664  13.0864  13.1314  13.1588  13.1657  13.2513
    13.3680  13.4524

          k = 0.2500 0.1443 0.0000 ( 61417 PWs)   bands (ev):

  -107.9045-107.9008-107.8995-107.8993-107.8989-107.8974-107.8972-107.8967
  -107.8964-107.8955-107.8954-107.8949-107.8949-107.8945-107.8943-107.8937
  -107.8934-107.8932-107.8918-107.8904-107.8894-107.8893-107.8880-107.8879
  -107.8875-107.8864-107.8864-107.8840-107.8813-107.8803-107.8803-107.8790
  -107.8789-107.8785-107.8776-107.8774-107.6606-107.6580-107.6569-107.6563
  -107.6553-107.6552-107.6529-107.6510-107.6509-107.6454-107.6424-107.6413
  -107.6413-107.6398-107.6398-107.6394-107.6384-107.6384 -65.3580 -65.3489
   -65.3484 -65.3472 -65.3460 -65.3460 -65.3455 -65.3454 -65.3422 -65.3422
   -65.3415 -65.3415 -65.3396 -65.3396 -65.3350 -65.3335 -65.3335 -65.3314
   -65.3309 -65.3298 -65.3297 -65.3297 -65.3296 -65.3294 -65.3272 -65.3272
   -65.3269 -65.3267 -65.3225 -65.3225 -65.3194 -65.3194 -65.3192 -65.3181
   -65.3180 -65.3174 -65.3167 -65.3167 -65.3146 -65.3145 -65.3121 -65.3121
   -65.3088 -65.3085 -65.3084 -65.3080 -65.3072 -65.3072 -65.3065 -65.3053
   -65.3052 -65.3041 -65.3039 -65.3026 -65.3024 -65.3023 -65.3016 -65.3008
   -65.3007 -65.2988 -65.2986 -65.2985 -65.2984 -65.2982 -65.2982 -65.2956
   -65.2956 -65.2934 -65.2933 -65.2927 -65.2927 -65.2911 -65.2910 -65.2907
   -65.2902 -65.2900 -65.2899 -65.2897 -65.2896 -65.2895 -65.2894 -65.2877
   -65.2877 -65.2859 -65.2858 -65.2855 -65.2847 -65.2842 -65.2837 -65.2836
   -65.2835 -65.2829 -65.2824 -65.2801 -65.2800 -65.2784 -65.2768 -65.2768
   -65.2767 -65.2758 -65.2755 -65.2732 -65.2732 -65.2724 -65.2698 -65.2693
   -65.2662 -65.2631 -65.1246 -65.1192 -65.1192 -65.1175 -65.1173 -65.1115
   -65.1059 -65.1059 -65.1058 -65.1057 -65.1048 -65.1047 -65.1001 -65.1000
   -65.0969 -65.0928 -65.0928 -65.0871 -65.0870 -65.0842 -65.0821 -65.0816
   -65.0804 -65.0775 -65.0773 -65.0734 -65.0694 -65.0687 -65.0686 -65.0676
   -65.0663 -65.0646 -65.0645 -65.0606 -65.0567 -65.0535 -65.0355 -65.0330
   -65.0321 -65.0315 -65.0306 -65.0305 -65.0275 -65.0256 -65.0255 -65.0175
   -65.0147 -65.0137 -65.0137 -65.0123 -65.0123 -65.0120 -65.0109 -65.0109
   -12.4601  -9.7248  -9.7221  -6.1394  -6.1312  -4.1884  -3.9561  -3.3391
    -2.5990  -2.3949  -2.3529  -2.2223  -1.8039  -1.6422  -1.6421  -1.6241
    -1.5826  -1.2768  -1.1573  -1.1571  -1.0016  -0.5859  -0.5859  -0.4957
    -0.4934  -0.4480  -0.3747  -0.3015  -0.2993  -0.2918  -0.1640  -0.1310
    -0.1266  -0.0288  -0.0242  -0.0241   0.1526   0.1535   0.1823   0.2478
     0.2480   0.3178   0.3581   0.4321   0.4365   0.4661   0.4662   0.4933
     0.5021   0.5022   0.5265   0.5265   0.5736   0.5742   0.5758   0.5761
     0.5888   0.5888   0.6286   0.6286   0.6657   0.6657   0.6938   0.6938
     0.7030   0.7446   0.7448   0.7593   0.7593   0.7820   0.7821   0.7949
     0.7949   0.8294   0.8294   0.8693   0.9381   0.9381   0.9452   0.9685
     0.9685   0.9831   0.9832   1.0195   1.0196   1.0534   1.0563   1.0563
     1.1180   1.1180   1.1451   1.1455   1.1659   1.1660   1.2110   1.2110
     1.2281   1.2478   1.2552   1.2553   1.2835   1.3228   1.3229   1.3431
     1.3431   1.3493   1.3873   1.3879   1.3976   1.4230   1.4231   1.4297
     1.4629   1.4630   1.4921   1.5289   1.5404   1.5511   1.5511   1.5638
     1.5643   1.5644   1.6029   1.6035   1.6080   1.6207   1.6207   1.6362
     1.6418   1.6418   1.6580   1.6611   1.6722   1.6788   1.6908   1.6998
     1.6998   1.7102   1.7151   1.7159   1.7166   1.7344   1.7346   1.7377
     1.7377   1.7419   1.7621   1.7643   1.7756   1.7877   1.7881   1.7963
     1.7978   1.8122   1.8124   1.8489   1.8489   1.8570   1.8571   1.8588
     1.8729   1.8817   1.8818   1.8824   1.8936   1.8959   1.8988   1.9132
     1.9531   1.9568   1.9618   1.9676   1.9677   1.9693   1.9787   1.9921
     1.9980   1.9986   1.9997   2.0211   2.0212   2.0346   2.0708   2.0725
     2.1046   2.1052   2.1130   2.1139   2.1190   2.1191   2.1821   2.1976
     2.2237   2.2246   2.2328   2.2329   2.2451   2.2451   2.2640   2.2733
     2.2821   2.2854   2.2867   2.2933   2.3214   2.3215   2.3486   2.3529
     2.3604   2.3635   2.3645   2.3726   2.3910   2.3982   2.4037   2.4056
     2.4133   2.4238   2.4410   2.4583   2.4593   2.4637   2.4640   2.4801
     2.4846   2.4850   2.5008   2.5046   2.5047   2.5059   2.5136   2.5176
     2.5424   2.5526   2.5892   2.5924   2.5989   2.6268   2.6274   2.6351
     2.6387   2.6389   2.6398   2.6424   2.6634   2.6636   2.6669   2.6789
     2.6805   2.6838   2.6869   2.6869   2.7125   2.7319   2.7319   2.7368
     2.7462   2.7462   2.7681   2.7684   2.7744   2.7752   2.8181   2.8191
     2.8191   2.8305   2.8305   2.8319   2.8434   2.8441   2.8529   2.8542
     2.8543   2.8558   2.8629   2.8630   2.8636   2.8700   2.8783   2.8783
     2.8956   2.9087   2.9087   2.9095   2.9105   2.9170   2.9184   2.9185
     2.9404   2.9499   2.9539   2.9604   2.9604   2.9653   2.9781   2.9782
     3.0555   3.0675   3.1039   3.2039   3.2261   3.2261   3.2976   3.3868
     3.3868   3.6405   3.6937   3.6947   3.6973   3.7017   4.0064   4.1848
     4.3811   4.6695   4.6697   4.8689   4.9666   4.9724   5.0187   5.7524
     5.7524   5.9661   6.1302   6.1339   6.1521   6.1523   6.4076   6.6625
     6.6886   6.8358   6.8377   7.2733   7.4494   7.4729   7.4982   7.6526
     7.6873   7.6947   7.8843   7.9276   8.1470   8.1499   8.2495   8.2905
     8.3477   8.6211   8.6218   8.7502   8.8025   8.8958   9.1725   9.1732
     9.2825   9.3397   9.5471   9.5687   9.7515   9.7785   9.9042   9.9232
     9.9294   9.9643   9.9875  10.0312  10.2583  10.3226  10.3229  10.4481
    10.4853  10.4897  10.5749  10.5852  10.6620  10.7049  10.7104  10.7815
    10.8303  10.8730  10.8839  11.1029  11.1100  11.1974  11.3776  11.4122
    11.4158  11.4479  11.4563  11.5588  11.6561  11.7370  11.8905  11.9843
    12.0444  12.1198  12.1677  12.2560  12.2719  12.3567  12.4787  12.5034
    12.5072  12.5471  12.5669  12.6491  12.7764  12.7784  12.8255  12.8398
    12.9461  12.9511  13.0664  13.0864  13.1314  13.1588  13.1657  13.2513
    13.3680  13.4524

          k = 0.5000-0.2887 0.0000 ( 61408 PWs)   bands (ev):

  -107.9031-107.9027-107.8997-107.8996-107.8983-107.8976-107.8965-107.8961
  -107.8959-107.8959-107.8958-107.8955-107.8954-107.8944-107.8938-107.8937
  -107.8935-107.8922-107.8919-107.8917-107.8896-107.8896-107.8873-107.8873
  -107.8872-107.8868-107.8867-107.8830-107.8827-107.8805-107.8805-107.8785
  -107.8782-107.8782-107.8781-107.8776-107.6599-107.6590-107.6570-107.6564
  -107.6551-107.6550-107.6528-107.6510-107.6508-107.6441-107.6441-107.6416
  -107.6415-107.6390-107.6390-107.6390-107.6390-107.6389 -65.3542 -65.3539
   -65.3515 -65.3501 -65.3461 -65.3461 -65.3449 -65.3448 -65.3445 -65.3444
   -65.3432 -65.3431 -65.3430 -65.3428 -65.3391 -65.3326 -65.3321 -65.3320
   -65.3315 -65.3315 -65.3313 -65.3313 -65.3304 -65.3302 -65.3278 -65.3278
   -65.3276 -65.3274 -65.3203 -65.3202 -65.3191 -65.3190 -65.3187 -65.3186
   -65.3171 -65.3135 -65.3134 -65.3102 -65.3097 -65.3096 -65.3096 -65.3094
   -65.3093 -65.3088 -65.3067 -65.3066 -65.3061 -65.3060 -65.3058 -65.3057
   -65.3027 -65.3027 -65.3026 -65.3017 -65.3017 -65.3015 -65.3013 -65.2999
   -65.2967 -65.2965 -65.2962 -65.2961 -65.2959 -65.2954 -65.2952 -65.2952
   -65.2952 -65.2951 -65.2950 -65.2947 -65.2921 -65.2920 -65.2917 -65.2917
   -65.2911 -65.2908 -65.2890 -65.2889 -65.2881 -65.2879 -65.2879 -65.2877
   -65.2866 -65.2865 -65.2862 -65.2857 -65.2847 -65.2847 -65.2846 -65.2840
   -65.2840 -65.2837 -65.2837 -65.2807 -65.2806 -65.2805 -65.2805 -65.2790
   -65.2786 -65.2769 -65.2767 -65.2765 -65.2746 -65.2745 -65.2728 -65.2727
   -65.2658 -65.2656 -65.1287 -65.1215 -65.1214 -65.1201 -65.1199 -65.1157
   -65.1078 -65.1078 -65.1078 -65.1077 -65.1021 -65.1020 -65.0906 -65.0903
   -65.0892 -65.0891 -65.0891 -65.0889 -65.0821 -65.0816 -65.0811 -65.0783
   -65.0776 -65.0767 -65.0767 -65.0767 -65.0766 -65.0701 -65.0687 -65.0686
   -65.0684 -65.0683 -65.0656 -65.0655 -65.0565 -65.0565 -65.0348 -65.0339
   -65.0322 -65.0315 -65.0304 -65.0304 -65.0275 -65.0257 -65.0255 -65.0164
   -65.0163 -65.0139 -65.0139 -65.0116 -65.0116 -65.0115 -65.0115 -65.0115
   -12.4592  -9.7283  -9.7229  -6.1428  -6.1265  -4.1615  -3.3305  -3.3303
    -2.7309  -2.7307  -2.5711  -2.2260  -1.8218  -1.8208  -1.7978  -1.7978
    -1.6712  -1.5897  -1.2871  -1.2868  -0.7645  -0.7580  -0.5658  -0.5641
    -0.3043  -0.1853  -0.0016   0.0014   0.0113   0.0187   0.0188   0.0189
     0.0189   0.1067   0.1804   0.1808   0.1882   0.1904   0.1980   0.2168
     0.2168   0.2168   0.2168   0.2728   0.2730   0.2730   0.2730   0.2784
     0.3581   0.3996   0.4378   0.4379   0.4380   0.4381   0.4786   0.5200
     0.6148   0.6148   0.6149   0.6149   0.6302   0.6524   0.6529   0.6695
     0.6695   0.6696   0.6696   0.7889   0.7890   0.7890   0.7891   0.8117
     0.8119   0.9012   0.9136   0.9136   0.9137   0.9137   0.9490   0.9490
     0.9937   0.9937   1.0656   1.0656   1.0658   1.0658   1.1258   1.1258
     1.1549   1.1551   1.1765   1.1765   1.1768   1.1769   1.1934   1.1934
     1.2305   1.2315   1.2826   1.2942   1.2945   1.3226   1.3228   1.3438
     1.3443   1.3519   1.3519   1.3522   1.3522   1.4089   1.4093   1.4140
     1.4140   1.4143   1.4143   1.4652   1.4665   1.4886   1.4886   1.4887
     1.4888   1.4985   1.5002   1.5002   1.5606   1.5625   1.5838   1.5847
     1.5855   1.6018   1.6036   1.6357   1.6365   1.6365   1.6368   1.6368
     1.6510   1.6523   1.6997   1.6998   1.7103   1.7105   1.7235   1.7235
     1.7580   1.7581   1.7582   1.7582   1.7809   1.7814   1.7815   1.7816
     1.7827   1.8118   1.8120   1.8122   1.8124   1.8434   1.8437   1.8635
     1.8726   1.8728   1.9352   1.9357   1.9414   1.9415   1.9461   1.9462
     1.9465   1.9466   1.9553   1.9559   1.9617   1.9618   1.9721   1.9890
     1.9897   1.9975   1.9978   1.9980   1.9983   2.0664   2.0690   2.0775
     2.0775   2.1503   2.1590   2.1601   2.1604   2.1650   2.1676   2.1692
     2.1692   2.1701   2.1741   2.1744   2.1990   2.2006   2.2294   2.2396
     2.2402   2.2403   2.2432   2.2596   2.2596   2.2597   2.2598   2.2632
     2.2638   2.2856   2.2858   2.2923   2.2926   2.3270   2.3691   2.3844
     2.4157   2.4157   2.4285   2.4435   2.4436   2.4443   2.4458   2.4759
     2.4767   2.4798   2.4942   2.5158   2.5166   2.5192   2.5194   2.5305
     2.5432   2.5494   2.5560   2.5561   2.5562   2.5564   2.5694   2.5901
     2.5901   2.5912   2.5924   2.6459   2.6460   2.6461   2.6464   2.6564
     2.6571   2.6830   2.6833   2.7131   2.7132   2.7159   2.7163   2.7436
     2.7436   2.7690   2.7714   2.7741   2.7928   2.8326   2.8339   2.8440
     2.8445   2.8541   2.8545   2.8679   2.8818   2.8819   2.8864   2.8866
     2.8876   2.8880   2.9032   2.9082   2.9082   2.9084   2.9085   2.9254
     2.9269   2.9272   2.9317   2.9352   2.9519   2.9550   2.9751   2.9752
     2.9756   2.9761   2.9831   2.9882   3.0117   3.0252   3.0253   3.0258
     3.0258   3.1352   3.1464   3.6663   3.6742   3.6765   3.6798   4.1936
     4.2368   4.2368   4.2370   4.2370   4.5079   4.5081   4.5084   4.5085
     4.8595   4.8615   4.8708   4.9756   4.9931   5.0658   5.0669   5.0675
     5.0681   5.3528   5.6922   5.9443   5.9671   5.9710   6.0461   6.0508
     6.0518   6.0536   6.1094   6.5184   6.5482   7.2980   7.3542   7.3616
     7.3621   7.4414   7.6070   7.9633   7.9823   8.0760   8.2188   8.3568
     8.4838   8.4848   8.4860   8.4961   8.8572   8.8789   8.8964   9.1334
     9.1346   9.1347   9.1399   9.2759   9.4567   9.5625   9.6954   9.7628
     9.7641   9.7899   9.7975   9.8410   9.8610  10.2369  10.3147  10.3206
    10.3792  10.4175  10.4356  10.4388  10.4512  10.8109  10.8819  11.0224
    11.1108  11.1954  11.2283  11.2344  11.2872  11.3237  11.3584  11.3825
    11.4584  11.5247  11.6472  12.0194  12.0929  12.1372  12.1460  12.1929
    12.2192  12.2850  12.4300  12.4875  12.7105  12.8013  12.8236  12.9222
    12.9312  12.9701  12.9993  13.0122  13.0363  13.1618  13.1694  13.1790
    13.1832  13.2385  13.2678  13.3568  13.3963  13.5747  13.6053  13.6085
    13.6566  13.7514

          k =-0.5000-0.2887 0.0000 ( 61408 PWs)   bands (ev):

  -107.9031-107.9027-107.8997-107.8996-107.8983-107.8976-107.8965-107.8961
  -107.8959-107.8959-107.8958-107.8955-107.8954-107.8944-107.8938-107.8937
  -107.8935-107.8922-107.8919-107.8917-107.8896-107.8896-107.8873-107.8873
  -107.8872-107.8868-107.8867-107.8830-107.8827-107.8805-107.8805-107.8785
  -107.8782-107.8782-107.8781-107.8776-107.6599-107.6590-107.6570-107.6564
  -107.6551-107.6550-107.6528-107.6510-107.6508-107.6441-107.6441-107.6416
  -107.6415-107.6390-107.6390-107.6390-107.6390-107.6390 -65.3542 -65.3539
   -65.3515 -65.3501 -65.3461 -65.3461 -65.3449 -65.3448 -65.3445 -65.3444
   -65.3432 -65.3431 -65.3430 -65.3428 -65.3391 -65.3326 -65.3321 -65.3320
   -65.3316 -65.3315 -65.3313 -65.3313 -65.3304 -65.3302 -65.3278 -65.3278
   -65.3276 -65.3274 -65.3203 -65.3202 -65.3191 -65.3190 -65.3187 -65.3186
   -65.3171 -65.3135 -65.3134 -65.3102 -65.3097 -65.3096 -65.3096 -65.3094
   -65.3093 -65.3088 -65.3067 -65.3066 -65.3061 -65.3060 -65.3058 -65.3057
   -65.3027 -65.3027 -65.3026 -65.3017 -65.3017 -65.3015 -65.3013 -65.2999
   -65.2967 -65.2965 -65.2962 -65.2961 -65.2959 -65.2954 -65.2952 -65.2952
   -65.2952 -65.2951 -65.2950 -65.2947 -65.2921 -65.2920 -65.2917 -65.2917
   -65.2911 -65.2908 -65.2890 -65.2889 -65.2881 -65.2879 -65.2879 -65.2877
   -65.2866 -65.2865 -65.2862 -65.2857 -65.2847 -65.2847 -65.2846 -65.2840
   -65.2840 -65.2837 -65.2837 -65.2806 -65.2806 -65.2805 -65.2805 -65.2790
   -65.2786 -65.2769 -65.2766 -65.2765 -65.2746 -65.2745 -65.2728 -65.2727
   -65.2658 -65.2656 -65.1287 -65.1215 -65.1214 -65.1201 -65.1199 -65.1157
   -65.1078 -65.1078 -65.1078 -65.1077 -65.1021 -65.1020 -65.0906 -65.0903
   -65.0892 -65.0891 -65.0891 -65.0889 -65.0821 -65.0816 -65.0811 -65.0783
   -65.0776 -65.0767 -65.0767 -65.0767 -65.0766 -65.0701 -65.0687 -65.0686
   -65.0684 -65.0683 -65.0656 -65.0655 -65.0565 -65.0565 -65.0348 -65.0339
   -65.0322 -65.0315 -65.0304 -65.0304 -65.0275 -65.0257 -65.0255 -65.0164
   -65.0163 -65.0139 -65.0139 -65.0116 -65.0116 -65.0115 -65.0115 -65.0115
   -12.4592  -9.7284  -9.7229  -6.1428  -6.1266  -4.1615  -3.3305  -3.3303
    -2.7309  -2.7307  -2.5711  -2.2260  -1.8218  -1.8208  -1.7978  -1.7978
    -1.6713  -1.5896  -1.2871  -1.2868  -0.7645  -0.7580  -0.5658  -0.5641
    -0.3043  -0.1853  -0.0016   0.0014   0.0113   0.0187   0.0188   0.0189
     0.0189   0.1067   0.1804   0.1808   0.1882   0.1904   0.1980   0.2167
     0.2168   0.2168   0.2168   0.2728   0.2730   0.2730   0.2730   0.2783
     0.3582   0.3996   0.4378   0.4379   0.4380   0.4381   0.4786   0.5200
     0.6148   0.6148   0.6149   0.6149   0.6302   0.6524   0.6529   0.6695
     0.6695   0.6696   0.6696   0.7889   0.7890   0.7890   0.7891   0.8117
     0.8119   0.9012   0.9136   0.9136   0.9137   0.9137   0.9490   0.9490
     0.9937   0.9937   1.0656   1.0656   1.0658   1.0658   1.1258   1.1258
     1.1549   1.1551   1.1765   1.1765   1.1768   1.1769   1.1934   1.1934
     1.2305   1.2315   1.2826   1.2942   1.2945   1.3226   1.3228   1.3438
     1.3443   1.3519   1.3519   1.3522   1.3522   1.4089   1.4093   1.4140
     1.4140   1.4143   1.4143   1.4652   1.4665   1.4886   1.4886   1.4887
     1.4888   1.4985   1.5001   1.5002   1.5606   1.5625   1.5838   1.5847
     1.5855   1.6018   1.6036   1.6357   1.6365   1.6365   1.6368   1.6368
     1.6510   1.6523   1.6997   1.6998   1.7103   1.7105   1.7235   1.7235
     1.7580   1.7581   1.7582   1.7582   1.7809   1.7814   1.7815   1.7816
     1.7827   1.8118   1.8120   1.8122   1.8124   1.8434   1.8437   1.8635
     1.8726   1.8728   1.9352   1.9357   1.9414   1.9415   1.9461   1.9462
     1.9465   1.9466   1.9553   1.9559   1.9617   1.9618   1.9721   1.9890
     1.9897   1.9975   1.9978   1.9980   1.9983   2.0664   2.0690   2.0775
     2.0775   2.1503   2.1590   2.1601   2.1604   2.1650   2.1676   2.1692
     2.1692   2.1701   2.1741   2.1744   2.1990   2.2006   2.2294   2.2396
     2.2402   2.2403   2.2432   2.2596   2.2596   2.2597   2.2598   2.2632
     2.2638   2.2856   2.2858   2.2923   2.2926   2.3270   2.3691   2.3844
     2.4157   2.4157   2.4285   2.4435   2.4435   2.4443   2.4458   2.4759
     2.4767   2.4798   2.4942   2.5158   2.5166   2.5192   2.5194   2.5305
     2.5432   2.5494   2.5560   2.5561   2.5562   2.5563   2.5694   2.5901
     2.5901   2.5912   2.5924   2.6459   2.6460   2.6461   2.6464   2.6564
     2.6571   2.6830   2.6833   2.7131   2.7132   2.7159   2.7163   2.7436
     2.7436   2.7690   2.7714   2.7741   2.7928   2.8326   2.8339   2.8440
     2.8445   2.8541   2.8545   2.8679   2.8818   2.8819   2.8864   2.8866
     2.8876   2.8880   2.9032   2.9082   2.9082   2.9084   2.9085   2.9254
     2.9269   2.9272   2.9317   2.9352   2.9519   2.9550   2.9751   2.9752
     2.9756   2.9761   2.9831   2.9882   3.0117   3.0252   3.0253   3.0258
     3.0258   3.1352   3.1464   3.6663   3.6742   3.6765   3.6798   4.1936
     4.2368   4.2368   4.2370   4.2370   4.5079   4.5081   4.5084   4.5085
     4.8595   4.8615   4.8708   4.9756   4.9931   5.0658   5.0669   5.0675
     5.0681   5.3528   5.6922   5.9443   5.9671   5.9710   6.0461   6.0508
     6.0518   6.0536   6.1094   6.5184   6.5482   7.2980   7.3542   7.3616
     7.3621   7.4414   7.6070   7.9633   7.9823   8.0760   8.2188   8.3568
     8.4838   8.4848   8.4860   8.4961   8.8572   8.8789   8.8964   9.1334
     9.1346   9.1347   9.1399   9.2760   9.4566   9.5625   9.6954   9.7628
     9.7641   9.7899   9.7975   9.8410   9.8610  10.2369  10.3147  10.3206
    10.3792  10.4175  10.4356  10.4388  10.4512  10.8109  10.8819  11.0224
    11.1108  11.1954  11.2283  11.2344  11.2872  11.3237  11.3584  11.3825
    11.4584  11.5247  11.6472  12.0194  12.0929  12.1372  12.1460  12.1929
    12.2192  12.2850  12.4300  12.4874  12.7104  12.8013  12.8236  12.9222
    12.9312  12.9701  12.9993  13.0122  13.0363  13.1618  13.1694  13.1790
    13.1832  13.2385  13.2678  13.3568  13.3963  13.5747  13.6053  13.6085
    13.6566  13.7514

          k =-0.2500-0.7217 0.0000 ( 61343 PWs)   bands (ev):

  -107.9034-107.9017-107.9013-107.8986-107.8976-107.8975-107.8972-107.8966
  -107.8962-107.8958-107.8958-107.8953-107.8949-107.8943-107.8940-107.8936
  -107.8935-107.8925-107.8918-107.8911-107.8909-107.8883-107.8880-107.8873
  -107.8872-107.8868-107.8866-107.8832-107.8820-107.8817-107.8793-107.8790
  -107.8784-107.8781-107.8780-107.8776-107.6600-107.6588-107.6575-107.6559
  -107.6552-107.6550-107.6528-107.6510-107.6508-107.6445-107.6430-107.6430
  -107.6401-107.6401-107.6390-107.6390-107.6390-107.6386 -65.3553 -65.3507
   -65.3504 -65.3495 -65.3493 -65.3482 -65.3480 -65.3466 -65.3449 -65.3433
   -65.3431 -65.3420 -65.3392 -65.3373 -65.3369 -65.3369 -65.3367 -65.3342
   -65.3310 -65.3306 -65.3305 -65.3303 -65.3301 -65.3286 -65.3284 -65.3275
   -65.3266 -65.3265 -65.3237 -65.3234 -65.3183 -65.3181 -65.3177 -65.3170
   -65.3145 -65.3143 -65.3135 -65.3133 -65.3131 -65.3101 -65.3096 -65.3094
   -65.3084 -65.3077 -65.3074 -65.3073 -65.3063 -65.3034 -65.3032 -65.3031
   -65.3030 -65.3029 -65.3028 -65.3014 -65.3012 -65.3010 -65.3008 -65.2992
   -65.2991 -65.2978 -65.2976 -65.2973 -65.2972 -65.2967 -65.2950 -65.2938
   -65.2937 -65.2936 -65.2934 -65.2929 -65.2927 -65.2920 -65.2919 -65.2918
   -65.2916 -65.2903 -65.2902 -65.2894 -65.2888 -65.2887 -65.2883 -65.2869
   -65.2866 -65.2859 -65.2858 -65.2857 -65.2856 -65.2856 -65.2854 -65.2853
   -65.2834 -65.2832 -65.2828 -65.2809 -65.2807 -65.2799 -65.2798 -65.2797
   -65.2789 -65.2788 -65.2766 -65.2755 -65.2755 -65.2746 -65.2710 -65.2691
   -65.2690 -65.2653 -65.1268 -65.1260 -65.1235 -65.1169 -65.1135 -65.1134
   -65.1134 -65.1123 -65.1106 -65.1040 -65.1001 -65.1000 -65.0937 -65.0919
   -65.0907 -65.0902 -65.0856 -65.0845 -65.0840 -65.0833 -65.0805 -65.0785
   -65.0776 -65.0776 -65.0773 -65.0728 -65.0725 -65.0719 -65.0719 -65.0710
   -65.0710 -65.0685 -65.0644 -65.0599 -65.0598 -65.0558 -65.0349 -65.0338
   -65.0325 -65.0312 -65.0305 -65.0304 -65.0275 -65.0257 -65.0255 -65.0167
   -65.0153 -65.0153 -65.0126 -65.0125 -65.0116 -65.0115 -65.0115 -65.0111
   -12.4592  -9.7271  -9.7242  -6.1385  -6.1308  -4.1617  -3.5360  -2.9297
    -2.7298  -2.7297  -2.5709  -2.2258  -2.1551  -2.1550  -2.0062  -1.6525
    -1.6114  -1.2962  -1.2953  -0.9224  -0.7191  -0.7190  -0.3701  -0.3681
    -0.3583  -0.3234  -0.2738  -0.1282  -0.1282  -0.1188   0.0472   0.0476
     0.0664   0.0665   0.0826   0.1325   0.1448   0.1449   0.1619   0.2605
     0.2642   0.2676   0.2677   0.2968   0.3378   0.3427   0.3446   0.4059
     0.4061   0.4179   0.4287   0.4559   0.4560   0.4590   0.4777   0.4782
     0.5467   0.5468   0.5710   0.5733   0.6035   0.6036   0.6281   0.6375
     0.6376   0.7068   0.7069   0.7329   0.7556   0.7655   0.7656   0.8412
     0.8424   0.8925   0.9119   0.9120   0.9419   0.9420   0.9987   1.0080
     1.0081   1.0233   1.0233   1.0385   1.0762   1.1039   1.1040   1.1460
     1.1461   1.1737   1.1794   1.1796   1.1807   1.1968   1.1970   1.2571
     1.2574   1.2598   1.2599   1.2625   1.2756   1.2920   1.2930   1.3066
     1.3068   1.3345   1.3351   1.3581   1.3607   1.3610   1.3801   1.4036
     1.4446   1.4529   1.4531   1.4536   1.4542   1.4833   1.5023   1.5066
     1.5070   1.5437   1.5437   1.5450   1.5476   1.5537   1.5767   1.5981
     1.5983   1.6157   1.6158   1.6427   1.6432   1.6520   1.6521   1.6662
     1.6666   1.6800   1.6802   1.6978   1.6981   1.7123   1.7215   1.7453
     1.7607   1.7618   1.7630   1.7813   1.7840   1.7844   1.7910   1.7997
     1.8000   1.8084   1.8085   1.8226   1.8285   1.8287   1.8289   1.8378
     1.8509   1.8557   1.8794   1.8973   1.8981   1.9068   1.9086   1.9092
     1.9153   1.9166   1.9168   1.9194   1.9247   1.9307   1.9324   1.9332
     1.9925   1.9932   2.0541   2.0546   2.0636   2.0672   2.0673   2.0725
     2.0951   2.0952   2.1154   2.1173   2.1189   2.1378   2.1539   2.1549
     2.1857   2.1869   2.1975   2.2278   2.2281   2.2309   2.2313   2.2353
     2.2373   2.2375   2.2438   2.2496   2.2578   2.2579   2.2982   2.3159
     2.3194   2.3227   2.3241   2.3281   2.3383   2.3441   2.3568   2.3650
     2.3780   2.3864   2.3901   2.4204   2.4246   2.4326   2.4404   2.4464
     2.4502   2.4534   2.4837   2.4937   2.4980   2.4986   2.5253   2.5255
     2.5466   2.5532   2.5539   2.5721   2.5727   2.5957   2.5959   2.5965
     2.6004   2.6026   2.6164   2.6167   2.6211   2.6266   2.6290   2.6459
     2.6846   2.6921   2.6923   2.6939   2.7426   2.7428   2.7520   2.7530
     2.7848   2.7979   2.7982   2.8037   2.8039   2.8195   2.8220   2.8483
     2.8487   2.8488   2.8586   2.8587   2.8707   2.8721   2.8732   2.8733
     2.8749   2.8829   2.8830   2.8834   2.8861   2.9008   2.9012   2.9167
     2.9172   2.9204   2.9274   2.9275   2.9388   2.9550   2.9596   2.9655
     2.9657   2.9830   3.0152   3.0154   3.0252   3.0468   3.0471   3.1998
     3.2029   3.3144   3.3144   3.4170   3.4172   3.5167   3.7423   3.7435
     4.1198   4.1279   4.2256   4.2257   4.2384   4.5016   4.6135   4.6167
     4.6340   4.6341   4.7515   5.0805   5.1081   5.1088   5.5510   5.5928
     5.6085   5.6445   5.8441   5.8655   5.8669   5.9980   6.0020   6.0888
     6.1592   6.5330   6.6125   6.6139   6.7893   6.8375   6.9354   6.9892
     6.9898   7.2885   7.4250   7.4587   7.5564   7.7639   7.8107   7.9177
     8.4077   8.4095   8.4579   8.5133   8.7037   9.0527   9.0751   9.1152
     9.1864   9.2665   9.3319   9.4218   9.4290   9.5830   9.6143   9.6487
     9.7641   9.7997  10.0067  10.1118  10.1242  10.3040  10.3572  10.4712
    10.4872  10.5523  10.6225  10.7493  10.7797  11.0106  11.0932  11.1501
    11.2456  11.3007  11.3781  11.4177  11.4231  11.5786  11.6165  11.6478
    11.6646  11.7395  11.7838  11.8314  11.9451  12.0517  12.0640  12.1912
    12.2566  12.3126  12.3303  12.3634  12.4293  12.4373  12.5023  12.5677
    12.6626  12.6915  12.7757  12.9013  12.9250  12.9547  13.1299  13.2123
    13.2456  13.2890  13.3490  13.3662  13.4420  13.4599  13.5309  13.5983
    13.6346  13.6553

          k =-0.5000-0.5774 0.0000 ( 61343 PWs)   bands (ev):

  -107.9034-107.9017-107.9013-107.8986-107.8976-107.8975-107.8972-107.8966
  -107.8963-107.8958-107.8958-107.8953-107.8949-107.8943-107.8940-107.8936
  -107.8935-107.8925-107.8918-107.8911-107.8909-107.8883-107.8880-107.8873
  -107.8872-107.8868-107.8866-107.8832-107.8820-107.8817-107.8793-107.8790
  -107.8784-107.8782-107.8780-107.8776-107.6600-107.6587-107.6575-107.6559
  -107.6552-107.6550-107.6528-107.6510-107.6508-107.6445-107.6431-107.6430
  -107.6401-107.6400-107.6390-107.6390-107.6390-107.6386 -65.3553 -65.3508
   -65.3504 -65.3495 -65.3493 -65.3482 -65.3480 -65.3466 -65.3449 -65.3433
   -65.3431 -65.3420 -65.3392 -65.3373 -65.3369 -65.3369 -65.3367 -65.3341
   -65.3310 -65.3306 -65.3305 -65.3303 -65.3301 -65.3286 -65.3284 -65.3275
   -65.3266 -65.3265 -65.3237 -65.3234 -65.3183 -65.3181 -65.3177 -65.3170
   -65.3145 -65.3143 -65.3135 -65.3133 -65.3131 -65.3101 -65.3096 -65.3094
   -65.3084 -65.3077 -65.3074 -65.3073 -65.3063 -65.3034 -65.3032 -65.3031
   -65.3029 -65.3029 -65.3028 -65.3014 -65.3012 -65.3010 -65.3008 -65.2992
   -65.2991 -65.2978 -65.2976 -65.2973 -65.2972 -65.2967 -65.2950 -65.2938
   -65.2937 -65.2936 -65.2934 -65.2929 -65.2927 -65.2920 -65.2919 -65.2918
   -65.2916 -65.2903 -65.2902 -65.2894 -65.2888 -65.2887 -65.2883 -65.2869
   -65.2866 -65.2859 -65.2858 -65.2857 -65.2856 -65.2856 -65.2854 -65.2853
   -65.2834 -65.2832 -65.2828 -65.2809 -65.2807 -65.2799 -65.2798 -65.2797
   -65.2789 -65.2788 -65.2766 -65.2755 -65.2755 -65.2746 -65.2710 -65.2691
   -65.2690 -65.2653 -65.1268 -65.1260 -65.1235 -65.1169 -65.1135 -65.1134
   -65.1134 -65.1124 -65.1106 -65.1040 -65.1001 -65.1000 -65.0937 -65.0919
   -65.0906 -65.0902 -65.0856 -65.0845 -65.0840 -65.0833 -65.0805 -65.0785
   -65.0776 -65.0776 -65.0773 -65.0728 -65.0725 -65.0719 -65.0719 -65.0710
   -65.0710 -65.0685 -65.0644 -65.0599 -65.0598 -65.0558 -65.0349 -65.0338
   -65.0325 -65.0312 -65.0305 -65.0304 -65.0275 -65.0257 -65.0255 -65.0167
   -65.0153 -65.0153 -65.0126 -65.0125 -65.0116 -65.0115 -65.0115 -65.0111
   -12.4592  -9.7269  -9.7244  -6.1389  -6.1304  -4.1617  -3.5360  -2.9297
    -2.7298  -2.7297  -2.5709  -2.2258  -2.1550  -2.1550  -2.0062  -1.6525
    -1.6114  -1.2962  -1.2953  -0.9224  -0.7190  -0.7190  -0.3701  -0.3681
    -0.3583  -0.3234  -0.2738  -0.1282  -0.1282  -0.1188   0.0472   0.0476
     0.0664   0.0665   0.0826   0.1325   0.1448   0.1449   0.1619   0.2605
     0.2642   0.2676   0.2677   0.2969   0.3377   0.3427   0.3446   0.4059
     0.4061   0.4179   0.4287   0.4559   0.4560   0.4590   0.4777   0.4782
     0.5467   0.5468   0.5710   0.5733   0.6035   0.6036   0.6281   0.6375
     0.6376   0.7068   0.7069   0.7329   0.7556   0.7655   0.7656   0.8412
     0.8424   0.8925   0.9119   0.9120   0.9419   0.9420   0.9987   1.0080
     1.0081   1.0233   1.0233   1.0385   1.0762   1.1039   1.1040   1.1460
     1.1462   1.1737   1.1794   1.1796   1.1807   1.1968   1.1970   1.2571
     1.2574   1.2598   1.2599   1.2625   1.2756   1.2920   1.2930   1.3066
     1.3068   1.3345   1.3351   1.3581   1.3607   1.3610   1.3801   1.4036
     1.4446   1.4529   1.4531   1.4536   1.4542   1.4833   1.5023   1.5066
     1.5070   1.5437   1.5437   1.5450   1.5476   1.5537   1.5767   1.5981
     1.5983   1.6157   1.6158   1.6427   1.6432   1.6520   1.6521   1.6662
     1.6666   1.6800   1.6802   1.6978   1.6981   1.7123   1.7215   1.7453
     1.7607   1.7618   1.7630   1.7813   1.7840   1.7844   1.7910   1.7997
     1.8000   1.8084   1.8085   1.8226   1.8285   1.8287   1.8289   1.8378
     1.8509   1.8557   1.8794   1.8973   1.8981   1.9068   1.9086   1.9092
     1.9153   1.9166   1.9168   1.9194   1.9247   1.9307   1.9324   1.9332
     1.9925   1.9932   2.0541   2.0546   2.0636   2.0672   2.0673   2.0725
     2.0951   2.0952   2.1154   2.1173   2.1189   2.1378   2.1539   2.1549
     2.1857   2.1869   2.1975   2.2278   2.2281   2.2309   2.2313   2.2353
     2.2373   2.2375   2.2438   2.2496   2.2578   2.2579   2.2982   2.3159
     2.3194   2.3227   2.3241   2.3281   2.3383   2.3441   2.3568   2.3650
     2.3780   2.3864   2.3901   2.4204   2.4246   2.4326   2.4404   2.4464
     2.4502   2.4534   2.4837   2.4937   2.4980   2.4986   2.5253   2.5255
     2.5466   2.5532   2.5539   2.5721   2.5727   2.5957   2.5959   2.5966
     2.6004   2.6026   2.6164   2.6167   2.6211   2.6266   2.6290   2.6459
     2.6846   2.6921   2.6923   2.6939   2.7426   2.7428   2.7520   2.7530
     2.7848   2.7979   2.7982   2.8037   2.8039   2.8195   2.8220   2.8483
     2.8487   2.8488   2.8586   2.8587   2.8707   2.8721   2.8732   2.8733
     2.8749   2.8829   2.8830   2.8834   2.8861   2.9008   2.9012   2.9167
     2.9172   2.9204   2.9274   2.9275   2.9388   2.9550   2.9596   2.9655
     2.9657   2.9830   3.0152   3.0154   3.0252   3.0469   3.0471   3.1998
     3.2029   3.3144   3.3144   3.4170   3.4172   3.5167   3.7423   3.7436
     4.1198   4.1279   4.2256   4.2257   4.2384   4.5016   4.6134   4.6167
     4.6340   4.6341   4.7515   5.0805   5.1081   5.1088   5.5510   5.5928
     5.6085   5.6445   5.8441   5.8655   5.8670   5.9980   6.0020   6.0888
     6.1592   6.5330   6.6125   6.6139   6.7892   6.8375   6.9354   6.9892
     6.9898   7.2885   7.4251   7.4586   7.5565   7.7639   7.8107   7.9177
     8.4076   8.4095   8.4578   8.5133   8.7037   9.0528   9.0751   9.1152
     9.1864   9.2665   9.3319   9.4218   9.4290   9.5830   9.6143   9.6486
     9.7641   9.7997  10.0067  10.1118  10.1242  10.3039  10.3572  10.4712
    10.4872  10.5523  10.6226  10.7493  10.7797  11.0106  11.0932  11.1501
    11.2456  11.3007  11.3781  11.4177  11.4231  11.5786  11.6165  11.6478
    11.6646  11.7395  11.7838  11.8315  11.9450  12.0517  12.0640  12.1911
    12.2567  12.3126  12.3303  12.3634  12.4293  12.4374  12.5023  12.5677
    12.6626  12.6914  12.7757  12.9013  12.9250  12.9546  13.1299  13.2123
    13.2456  13.2888  13.3490  13.3662  13.4420  13.4599  13.5311  13.5983
    13.6346  13.6555

     the Fermi energy is     4.5435 ev

!    total energy              =  -21903.76684265 Ry
     Harris-Foulkes estimate   =  -21903.76684266 Ry
     estimated scf accuracy    <          1.5E-09 Ry

     The total energy is the sum of the following terms:

     one-electron contribution = -205665.18072273 Ry
     hartree contribution      =  103032.97495636 Ry
     xc contribution           =   -2143.15620771 Ry
     ewald contribution        =   82871.64767882 Ry
     smearing contrib. (-TS)   =      -0.05254738 Ry

     convergence has been achieved in  42 iterations
 
     init_run     :    324.31s CPU    327.80s WALL (       1 calls)
     electrons    :  35691.35s CPU  36119.39s WALL (       1 calls)

     Called by init_run:
     wfcinit      :    306.28s CPU    308.77s WALL (       1 calls)
     potinit      :     12.27s CPU     12.63s WALL (       1 calls)
     hinit0       :      2.58s CPU      2.62s WALL (       1 calls)

     Called by electrons:
     c_bands      :  32776.64s CPU  33119.29s WALL (      42 calls)
     sum_band     :   2462.01s CPU   2512.93s WALL (      42 calls)
     v_of_rho     :    388.55s CPU    399.42s WALL (      43 calls)
     newd         :     57.68s CPU     81.45s WALL (      43 calls)
     mix_rho      :     12.37s CPU     12.62s WALL (      42 calls)

     Called by c_bands:
     init_us_2    :     37.36s CPU     38.53s WALL (     850 calls)
     cegterg      :  32626.43s CPU  32959.67s WALL (     420 calls)

     Called by sum_band:
     sum_band:bec :      3.31s CPU      3.33s WALL (     420 calls)
     addusdens    :     54.24s CPU     79.68s WALL (      42 calls)

     Called by *egterg:
     h_psi        :  13333.15s CPU  13472.20s WALL (    2239 calls)
     s_psi        :    654.52s CPU    655.52s WALL (    2239 calls)
     g_psi        :     11.59s CPU     11.63s WALL (    1809 calls)
     cdiaghg      :  14616.96s CPU  14697.53s WALL (    2229 calls)

     Called by h_psi:
     h_psi:pot    :  13320.85s CPU  13439.15s WALL (    2239 calls)
     h_psi:calbec :    901.40s CPU    909.13s WALL (    2239 calls)
     vloc_psi     :  11761.89s CPU  11870.18s WALL (    2239 calls)
     add_vuspsi   :    657.53s CPU    659.82s WALL (    2239 calls)

     General routines
     calbec       :   1213.22s CPU   1222.08s WALL (    2659 calls)
     fft          :    352.26s CPU    354.68s WALL (    2708 calls)
     ffts         :      3.01s CPU      3.07s WALL (      85 calls)
     fftw         :  13380.12s CPU  13505.61s WALL ( 1618176 calls)
     interpolate  :      6.39s CPU      6.46s WALL (      43 calls)
 
     Parallel routines
     fft_scatt_xy :    333.08s CPU    335.49s WALL ( 1620969 calls)
     fft_scatt_yz :  12250.61s CPU  12371.06s WALL ( 1620969 calls)
 
     PWSCF        :    10h 0m CPU        0h10m WALL

       7h
 
   This run was terminated on:  21: 9:28  14Nov2019            

=------------------------------------------------------------------------------=
   JOB DONE.
=------------------------------------------------------------------------------=
