
     Program PWSCF v.6.3MaX starts on 15Nov2019 at 17:12:28 

     This program is part of the open-source Quantum ESPRESSO suite
     for quantum simulation of materials; please cite
         "P. Giannozzi et al., J. Phys.:Condens. Matter 21 395502 (2009);
         "P. Giannozzi et al., J. Phys.:Condens. Matter 29 465901 (2017);
          URL http://www.quantum-espresso.org", 
     in publications or presentations arising from this work. More details at
     http://www.quantum-espresso.org/quote

     Parallel version (MPI), running on    16 processors

     MPI processes distributed on     2 nodes
     R & G space division:  proc/nbgrp/npool/nimage =      16
     Waiting for input...
     Reading input from standard input

     Current dimensions of program PWSCF are:
     Max number of different atomic species (ntypx) = 10
     Max number of k-points (npk) =  40000
     Max angular momentum in pseudopotentials (lmaxx) =  3
     Message from routine iosys:
     minimal I/O required, wf_collect reset to FALSE

     IMPORTANT: XC functional enforced from input :
     Exchange-correlation      = VDW-DF ( 1  4  4  0 1 0)
     Any further DFT definition will be discarded
     Please, verify this is what you really want


     Subspace diagonalization in iterative solution of the eigenvalue problem:
     one sub-group per band group will be used
     scalapack distributed-memory algorithm (size of sub-group:  2*  2 procs)

 
     Parallelization info
     --------------------
     sticks:   dense  smooth     PW     G-vecs:    dense   smooth      PW
     Min         565     189     51               159513    30701    4383
     Max         566     190     52               159526    30710    4400
     Sum        9055    3037    823              2552337   491295   70261
 


     bravais-lattice index     =            0
     lattice parameter (alat)  =      14.8058  a.u.
     unit-cell volume          =   10282.4791 (a.u.)^3
     number of atoms/cell      =           66
     number of atomic types    =            3
     number of electrons       =      1056.00
     number of Kohn-Sham states=          634
     kinetic-energy cutoff     =      50.0000  Ry
     charge density cutoff     =     600.0000  Ry
     convergence threshold     =      1.0E-08
     mixing beta               =       0.3000
     number of iterations used =            8  plain     mixing
     Exchange-correlation      = VDW-DF ( 1  4  4  0 1 0)

     celldm(1)=  14.805786  celldm(2)=   0.000000  celldm(3)=   0.000000
     celldm(4)=   0.000000  celldm(5)=   0.000000  celldm(6)=   0.000000

     crystal axes: (cart. coord. in units of alat)
               a(1) = (   1.000000   0.000000   0.000000 )  
               a(2) = (   0.500000   0.866025   0.000000 )  
               a(3) = (   0.000000   0.000000   3.658245 )  

     reciprocal axes: (cart. coord. in units 2 pi/alat)
               b(1) = (  1.000000 -0.577350  0.000000 )  
               b(2) = (  0.000000  1.154701  0.000000 )  
               b(3) = (  0.000000  0.000000  0.273355 )  


     PseudoPot. # 1 for Cu read from file:
     /deac/thonhauserGrp/chakrad/calculations/atomandmolecule-qe6.2.1-i2012-C6modif/all_pbe_UPF_v1.5/cu_pbe_v1.2.uspp.F.UPF
     MD5 check sum: 6e991ff952a84172a2a52a1c1e996048
     Pseudo is Ultrasoft + core correction, Zval = 19.0
     Generated by new atomic code, or converted to UPF format
     Using radial grid of  867 points,  6 beta functions with: 
                l(1) =   0
                l(2) =   0
                l(3) =   1
                l(4) =   1
                l(5) =   2
                l(6) =   2
     Q(r) pseudized with  8 coefficients,  rinner =    1.150   1.150   1.150
                                                       1.150   1.150

     PseudoPot. # 2 for C  read from file:
     /deac/thonhauserGrp/chakrad/calculations/atomandmolecule-qe6.2.1-i2012-C6modif/all_pbe_UPF_v1.5/c_pbe_v1.2.uspp.F.UPF
     MD5 check sum: d1aef80898a10debaa0f26306b886e00
     Pseudo is Ultrasoft + core correction, Zval =  4.0
     Generated by new atomic code, or converted to UPF format
     Using radial grid of  721 points,  4 beta functions with: 
                l(1) =   0
                l(2) =   0
                l(3) =   1
                l(4) =   1
     Q(r) pseudized with  8 coefficients,  rinner =    1.100   1.100   1.100


     PseudoPot. # 3 for H  read from file:
     /deac/thonhauserGrp/chakrad/calculations/atomandmolecule-qe6.2.1-i2012-C6modif/all_pbe_UPF_v1.5/h_pbe_v1.4.uspp.F.UPF
     MD5 check sum: 761ae9a214b05c3daf00ab9f6b793d6f
     Pseudo is Ultrasoft, Zval =  1.0
     Generated by new atomic code, or converted to UPF format
     Using radial grid of  615 points,  2 beta functions with: 
                l(1) =   0
                l(2) =   0
     Q(r) pseudized with  8 coefficients,  rinner =    0.700

     vdW kernel table read from file vdW_kernel_table
     MD5 check sum: cc9485f6209b1096fbef62427c856dab

     atomic species   valence    mass     pseudopotential
        Cu            19.00     1.00000     Cu( 1.00)
        C              4.00     1.00000     C ( 1.00)
        H              1.00     1.00000     H ( 1.00)

     No symmetry found



   Cartesian axes

     site n.     atom                  positions (alat units)
         1           Cu  tau(   1) = (   0.1666667   0.0962250   0.2552686  )
         2           Cu  tau(   2) = (   0.5000000   0.0962250   0.2552686  )
         3           Cu  tau(   3) = (   0.8333333   0.0962250   0.2552686  )
         4           Cu  tau(   4) = (   0.3333333   0.3849002   0.2552686  )
         5           Cu  tau(   5) = (   0.6666667   0.3849002   0.2552686  )
         6           Cu  tau(   6) = (   1.0000000   0.3849002   0.2552686  )
         7           Cu  tau(   7) = (   0.5000000   0.6735753   0.2552686  )
         8           Cu  tau(   8) = (   0.8333333   0.6735753   0.2552686  )
         9           Cu  tau(   9) = (   1.1666667   0.6735753   0.2552686  )
        10           Cu  tau(  10) = (   0.0000000   0.1924501   0.5274341  )
        11           Cu  tau(  11) = (   0.3333333   0.1924501   0.5274341  )
        12           Cu  tau(  12) = (   0.6666667   0.1924501   0.5274341  )
        13           Cu  tau(  13) = (   0.1666667   0.4811252   0.5274341  )
        14           Cu  tau(  14) = (   0.5000000   0.4811252   0.5274341  )
        15           Cu  tau(  15) = (   0.8333333   0.4811252   0.5274341  )
        16           Cu  tau(  16) = (   0.3333333   0.7698004   0.5274341  )
        17           Cu  tau(  17) = (   0.6666667   0.7698004   0.5274341  )
        18           Cu  tau(  18) = (   1.0000000   0.7698004   0.5274341  )
        19           Cu  tau(  19) = (   0.0000000   0.0000000   0.7995997  )
        20           Cu  tau(  20) = (   0.3333333   0.0000000   0.7995997  )
        21           Cu  tau(  21) = (   0.6666667   0.0000000   0.7995997  )
        22           Cu  tau(  22) = (   0.1666667   0.2886751   0.7995997  )
        23           Cu  tau(  23) = (   0.5000000   0.2886751   0.7995997  )
        24           Cu  tau(  24) = (   0.8333333   0.2886751   0.7995997  )
        25           Cu  tau(  25) = (   0.3333333   0.5773503   0.7995997  )
        26           Cu  tau(  26) = (   0.6666667   0.5773503   0.7995997  )
        27           Cu  tau(  27) = (   1.0000000   0.5773503   0.7995997  )
        28           Cu  tau(  28) = (   0.1666659   0.0962246   1.0691130  )
        29           Cu  tau(  29) = (   0.5000000   0.0962241   1.0691104  )
        30           Cu  tau(  30) = (   0.8333341   0.0962246   1.0691130  )
        31           Cu  tau(  31) = (   0.3333325   0.3849006   1.0691104  )
        32           Cu  tau(  32) = (   0.6666675   0.3849006   1.0691104  )
        33           Cu  tau(  33) = (   1.0000000   0.3849003   1.0691143  )
        34           Cu  tau(  34) = (   0.5000000   0.6735762   1.0691130  )
        35           Cu  tau(  35) = (   0.8333334   0.6735753   1.0691143  )
        36           Cu  tau(  36) = (   1.1666666   0.6735753   1.0691143  )
        37           Cu  tau(  37) = (   0.0000000   0.1924486   1.3387540  )
        38           Cu  tau(  38) = (   0.3333330   0.1924499   1.3387465  )
        39           Cu  tau(  39) = (   0.6666670   0.1924499   1.3387465  )
        40           Cu  tau(  40) = (   0.1666676   0.4811247   1.3387504  )
        41           Cu  tau(  41) = (   0.5000000   0.4811256   1.3387465  )
        42           Cu  tau(  42) = (   0.8333324   0.4811247   1.3387504  )
        43           Cu  tau(  43) = (   0.3333346   0.7698011   1.3387540  )
        44           Cu  tau(  44) = (   0.6666654   0.7698011   1.3387540  )
        45           Cu  tau(  45) = (   1.0000000   0.7698014   1.3387504  )
        46           Cu  tau(  46) = (   0.0000000   0.0000000   1.6083750  )
        47           Cu  tau(  47) = (   0.3333333   0.0000005   1.6083624  )
        48           Cu  tau(  48) = (   0.6666667   0.0000005   1.6083624  )
        49           Cu  tau(  49) = (   0.1666671   0.2886748   1.6083624  )
        50           Cu  tau(  50) = (   0.5000000   0.2886751   1.6083553  )
        51           Cu  tau(  51) = (   0.8333329   0.2886748   1.6083624  )
        52           Cu  tau(  52) = (   0.3333338   0.5773500   1.6083624  )
        53           Cu  tau(  53) = (   0.6666662   0.5773500   1.6083624  )
        54           Cu  tau(  54) = (   1.0000000   0.5773503   1.6083570  )
        55           C   tau(  55) = (   0.6567407   0.3959883   2.0933283  )
        56           C   tau(  56) = (   0.5046394   0.3028152   2.0933282  )
        57           C   tau(  57) = (   0.3478975   0.3879497   2.0933282  )
        58           C   tau(  58) = (   0.3432593   0.5662630   2.0933283  )
        59           C   tau(  59) = (   0.4953606   0.6594361   2.0933282  )
        60           C   tau(  60) = (   0.6521025   0.5743016   2.0933282  )
        61           H   tau(  61) = (   0.7789959   0.3295665   2.0934065  )
        62           H   tau(  62) = (   0.5082587   0.1637263   2.0934065  )
        63           H   tau(  63) = (   0.2292624   0.3152577   2.0934065  )
        64           H   tau(  64) = (   0.2210041   0.6326847   2.0934065  )
        65           H   tau(  65) = (   0.4917413   0.7985249   2.0934065  )
        66           H   tau(  66) = (   0.7707376   0.6469936   2.0934065  )

     number of k points=    10  gaussian smearing, width (Ry)=  0.0200
                       cart. coord. in units 2pi/alat
        k(    1) = (   0.0000000   0.0000000   0.0000000), wk =   0.1250000
        k(    2) = (   0.0000000   0.2886751   0.0000000), wk =   0.2500000
        k(    3) = (   0.0000000  -0.5773503   0.0000000), wk =   0.1250000
        k(    4) = (   0.2500000  -0.7216878   0.0000000), wk =   0.2500000
        k(    5) = (  -0.2500000   0.1443376   0.0000000), wk =   0.2500000
        k(    6) = (   0.2500000   0.1443376   0.0000000), wk =   0.2500000
        k(    7) = (   0.5000000  -0.2886751   0.0000000), wk =   0.1250000
        k(    8) = (  -0.5000000  -0.2886751   0.0000000), wk =   0.1250000
        k(    9) = (  -0.2500000  -0.7216878   0.0000000), wk =   0.2500000
        k(   10) = (  -0.5000000  -0.5773503   0.0000000), wk =   0.2500000

     Dense  grid:  2552337 G-vectors     FFT dimensions: ( 120, 120, 432)

     Smooth grid:   491295 G-vectors     FFT dimensions: (  72,  72, 243)

     Estimated max dynamical RAM per process >       1.14 GB

     Estimated total dynamical RAM >      18.26 GB

     Initial potential from superposition of free atoms
     Check: negative starting charge=   -0.000708

     starting charge 1001.99960, renormalised to 1056.00000

     negative rho (up, down):  7.458E-04 0.000E+00


     %%%%%%%%%%%%%%%%%%%%%%%%%%%%%%%%%%%%%%%%%%%%%%%%%%%%%%%%%%%%%%%%%%%%%%%%
     %                                                                      %
     % You are using vdW-DF, which was implemented by the Thonhauser group. %
     % Please cite the following two papers that made this development      %
     % possible and the two reviews that describe the various versions:     %
     %                                                                      %
     %   T. Thonhauser et al., PRL 115, 136402 (2015).                      %
     %   T. Thonhauser et al., PRB 76, 125112 (2007).                       %
     %   K. Berland et al., Rep. Prog. Phys. 78, 066501 (2015).             %
     %   D.C. Langreth et al., J. Phys.: Condens. Matter 21, 084203 (2009). %
     %                                                                      %
     %                                                                      %
     % If you are calculating the stress with vdW-DF, please also cite:     %
     %                                                                      %
     %   R. Sabatini et al., J. Phys.: Condens. Matter 24, 424209 (2012).   %
     %                                                                      %
     %%%%%%%%%%%%%%%%%%%%%%%%%%%%%%%%%%%%%%%%%%%%%%%%%%%%%%%%%%%%%%%%%%%%%%%%


     Starting wfcs are  732 randomized atomic wfcs

     total cpu time spent up to now is      226.3 secs

     Self-consistent Calculation

     iteration #  1     ecut=    50.00 Ry     beta= 0.30
     Davidson diagonalization with overlap
     ethr =  1.00E-02,  avg # of iterations =  5.8

     negative rho (up, down):  4.526E-04 0.000E+00

     total cpu time spent up to now is     2510.9 secs

     total energy              =  -19095.71051936 Ry
     Harris-Foulkes estimate   =  -22003.96812659 Ry
     estimated scf accuracy    <    5749.48984609 Ry

     iteration #  2     ecut=    50.00 Ry     beta= 0.30
     Davidson diagonalization with overlap
     c_bands:  5 eigenvalues not converged
     ethr =  1.00E-02,  avg # of iterations = 19.0

     negative rho (up, down):  4.876E-04 0.000E+00

     total cpu time spent up to now is     7939.3 secs

     total energy              =  -19230.14699124 Ry
     Harris-Foulkes estimate   =  -38541.23834586 Ry
     estimated scf accuracy    <  282609.02056291 Ry

     iteration #  3     ecut=    50.00 Ry     beta= 0.30
     Davidson diagonalization with overlap
     ethr =  1.00E-02,  avg # of iterations =  7.0

     negative rho (up, down):  5.657E-04 0.000E+00

     total cpu time spent up to now is    10778.4 secs

     total energy              =  -21709.36969630 Ry
     Harris-Foulkes estimate   =  -23308.71428354 Ry
     estimated scf accuracy    <   43552.59059135 Ry

     iteration #  4     ecut=    50.00 Ry     beta= 0.30
     Davidson diagonalization with overlap
     ethr =  1.00E-02,  avg # of iterations =  7.7

     negative rho (up, down):  7.273E-04 0.000E+00

     total cpu time spent up to now is    12851.9 secs

     total energy              =  -21705.15700572 Ry
     Harris-Foulkes estimate   =  -22096.76619052 Ry
     estimated scf accuracy    <   10821.77992605 Ry

     iteration #  5     ecut=    50.00 Ry     beta= 0.30
     Davidson diagonalization with overlap
     ethr =  1.00E-02,  avg # of iterations =  6.0

     negative rho (up, down):  2.386E-04 0.000E+00

     total cpu time spent up to now is    15156.2 secs

     total energy              =  -21705.20146867 Ry
     Harris-Foulkes estimate   =  -22155.48497490 Ry
     estimated scf accuracy    <    8751.40586115 Ry

     iteration #  6     ecut=    50.00 Ry     beta= 0.30
     Davidson diagonalization with overlap
     ethr =  1.00E-02,  avg # of iterations =  5.8

     negative rho (up, down):  2.792E-04 0.000E+00

     total cpu time spent up to now is    16897.3 secs

     total energy              =  -21884.59140844 Ry
     Harris-Foulkes estimate   =  -21978.45161987 Ry
     estimated scf accuracy    <     682.26530968 Ry

     iteration #  7     ecut=    50.00 Ry     beta= 0.30
     Davidson diagonalization with overlap
     ethr =  1.00E-02,  avg # of iterations =  3.0

     negative rho (up, down):  4.389E-04 0.000E+00

     total cpu time spent up to now is    17530.5 secs

     total energy              =  -21907.05787161 Ry
     Harris-Foulkes estimate   =  -21934.38616328 Ry
     estimated scf accuracy    <     270.06963333 Ry

     iteration #  8     ecut=    50.00 Ry     beta= 0.30
     Davidson diagonalization with overlap
     ethr =  1.00E-02,  avg # of iterations =  3.0

     negative rho (up, down):  5.772E-04 0.000E+00

     total cpu time spent up to now is    18101.5 secs

     total energy              =  -21911.55046765 Ry
     Harris-Foulkes estimate   =  -21921.69790467 Ry
     estimated scf accuracy    <     244.51541278 Ry

     iteration #  9     ecut=    50.00 Ry     beta= 0.30
     Davidson diagonalization with overlap
     ethr =  1.00E-02,  avg # of iterations =  1.3

     negative rho (up, down):  6.444E-04 0.000E+00

     total cpu time spent up to now is    18560.6 secs

     total energy              =  -21914.09160266 Ry
     Harris-Foulkes estimate   =  -21914.71331031 Ry
     estimated scf accuracy    <      85.33001989 Ry

     iteration # 10     ecut=    50.00 Ry     beta= 0.30
     Davidson diagonalization with overlap
     ethr =  8.08E-03,  avg # of iterations =  1.0

     negative rho (up, down):  1.812E-02 0.000E+00

     total cpu time spent up to now is    19007.8 secs

     total energy              =  -21892.95572860 Ry
     Harris-Foulkes estimate   =  -21914.23254543 Ry
     estimated scf accuracy    <      84.05842122 Ry

     iteration # 11     ecut=    50.00 Ry     beta= 0.30
     Davidson diagonalization with overlap
     ethr =  7.96E-03,  avg # of iterations =  5.5

     total cpu time spent up to now is    20051.1 secs

     total energy              =  -21891.10846028 Ry
     Harris-Foulkes estimate   =  -21928.92318084 Ry
     estimated scf accuracy    <     899.59186904 Ry

     iteration # 12     ecut=    50.00 Ry     beta= 0.30
     Davidson diagonalization with overlap
     ethr =  7.96E-03,  avg # of iterations =  2.9

     negative rho (up, down):  1.195E-05 0.000E+00

     total cpu time spent up to now is    20613.7 secs

     total energy              =  -21900.46513705 Ry
     Harris-Foulkes estimate   =  -21906.57705275 Ry
     estimated scf accuracy    <      38.93072358 Ry

     iteration # 13     ecut=    50.00 Ry     beta= 0.30
     Davidson diagonalization with overlap
     ethr =  3.69E-03,  avg # of iterations =  4.1

     negative rho (up, down):  5.091E-07 0.000E+00

     total cpu time spent up to now is    21294.6 secs

     total energy              =  -21903.09093078 Ry
     Harris-Foulkes estimate   =  -21904.69377800 Ry
     estimated scf accuracy    <      26.64515769 Ry

     iteration # 14     ecut=    50.00 Ry     beta= 0.30
     Davidson diagonalization with overlap
     ethr =  2.52E-03,  avg # of iterations =  3.5

     negative rho (up, down):  1.230E-07 0.000E+00

     total cpu time spent up to now is    21887.5 secs

     total energy              =  -21903.88794027 Ry
     Harris-Foulkes estimate   =  -21904.49171776 Ry
     estimated scf accuracy    <       6.98194646 Ry

     iteration # 15     ecut=    50.00 Ry     beta= 0.30
     Davidson diagonalization with overlap
     ethr =  6.61E-04,  avg # of iterations =  6.3

     negative rho (up, down):  1.677E-07 0.000E+00

     total cpu time spent up to now is    22767.0 secs

     total energy              =  -21903.91762558 Ry
     Harris-Foulkes estimate   =  -21904.10013074 Ry
     estimated scf accuracy    <       3.30779347 Ry

     iteration # 16     ecut=    50.00 Ry     beta= 0.30
     Davidson diagonalization with overlap
     ethr =  3.13E-04,  avg # of iterations =  3.4

     negative rho (up, down):  2.948E-07 0.000E+00

     total cpu time spent up to now is    23450.9 secs

     total energy              =  -21903.87503505 Ry
     Harris-Foulkes estimate   =  -21903.96702846 Ry
     estimated scf accuracy    <       1.53177991 Ry

     iteration # 17     ecut=    50.00 Ry     beta= 0.30
     Davidson diagonalization with overlap
     ethr =  1.45E-04,  avg # of iterations =  6.1

     negative rho (up, down):  1.106E-06 0.000E+00

     total cpu time spent up to now is    24323.5 secs

     total energy              =  -21903.79035864 Ry
     Harris-Foulkes estimate   =  -21903.90762537 Ry
     estimated scf accuracy    <       0.95170638 Ry

     iteration # 18     ecut=    50.00 Ry     beta= 0.30
     Davidson diagonalization with overlap
     ethr =  9.01E-05,  avg # of iterations =  5.9

     negative rho (up, down):  3.133E-04 0.000E+00

     total cpu time spent up to now is    25194.4 secs

     total energy              =  -21903.74743116 Ry
     Harris-Foulkes estimate   =  -21903.83463345 Ry
     estimated scf accuracy    <       0.49910216 Ry

     iteration # 19     ecut=    50.00 Ry     beta= 0.30
     Davidson diagonalization with overlap
     ethr =  4.73E-05,  avg # of iterations =  6.7

     negative rho (up, down):  9.928E-04 0.000E+00

     total cpu time spent up to now is    26233.9 secs

     total energy              =  -21903.73803099 Ry
     Harris-Foulkes estimate   =  -21903.81903824 Ry
     estimated scf accuracy    <       1.12570161 Ry

     iteration # 20     ecut=    50.00 Ry     beta= 0.30
     Davidson diagonalization with overlap
     ethr =  4.73E-05,  avg # of iterations =  5.8

     negative rho (up, down):  1.413E-03 0.000E+00

     total cpu time spent up to now is    27082.5 secs

     total energy              =  -21903.76005872 Ry
     Harris-Foulkes estimate   =  -21903.77184543 Ry
     estimated scf accuracy    <       0.03600416 Ry

     iteration # 21     ecut=    50.00 Ry     beta= 0.30
     Davidson diagonalization with overlap
     ethr =  3.41E-06,  avg # of iterations =  7.1

     negative rho (up, down):  1.217E-03 0.000E+00

     total cpu time spent up to now is    28585.0 secs

     total energy              =  -21903.76475072 Ry
     Harris-Foulkes estimate   =  -21903.77411063 Ry
     estimated scf accuracy    <       0.07756035 Ry

     iteration # 22     ecut=    50.00 Ry     beta= 0.30
     Davidson diagonalization with overlap
     ethr =  3.41E-06,  avg # of iterations =  5.4

     negative rho (up, down):  1.728E-03 0.000E+00

     total cpu time spent up to now is    29424.2 secs

     total energy              =  -21903.76717319 Ry
     Harris-Foulkes estimate   =  -21903.76957717 Ry
     estimated scf accuracy    <       0.03278809 Ry

     iteration # 23     ecut=    50.00 Ry     beta= 0.30
     Davidson diagonalization with overlap
     ethr =  3.10E-06,  avg # of iterations =  4.2

     negative rho (up, down):  2.558E-03 0.000E+00

     total cpu time spent up to now is    30112.2 secs

     total energy              =  -21903.76826546 Ry
     Harris-Foulkes estimate   =  -21903.76870832 Ry
     estimated scf accuracy    <       0.00463816 Ry

     iteration # 24     ecut=    50.00 Ry     beta= 0.30
     Davidson diagonalization with overlap
     ethr =  4.39E-07,  avg # of iterations =  5.6

     negative rho (up, down):  3.008E-03 0.000E+00

     total cpu time spent up to now is    30920.5 secs

     total energy              =  -21903.76837315 Ry
     Harris-Foulkes estimate   =  -21903.76859526 Ry
     estimated scf accuracy    <       0.00112375 Ry

     iteration # 25     ecut=    50.00 Ry     beta= 0.30
     Davidson diagonalization with overlap
     ethr =  1.06E-07,  avg # of iterations =  4.4

     negative rho (up, down):  2.902E-03 0.000E+00

     total cpu time spent up to now is    31621.5 secs

     total energy              =  -21903.76845132 Ry
     Harris-Foulkes estimate   =  -21903.76849018 Ry
     estimated scf accuracy    <       0.00040084 Ry

     iteration # 26     ecut=    50.00 Ry     beta= 0.30
     Davidson diagonalization with overlap
     ethr =  3.80E-08,  avg # of iterations =  1.4

     negative rho (up, down):  2.840E-03 0.000E+00

     total cpu time spent up to now is    32132.8 secs

     total energy              =  -21903.76847328 Ry
     Harris-Foulkes estimate   =  -21903.76848557 Ry
     estimated scf accuracy    <       0.00009442 Ry

     iteration # 27     ecut=    50.00 Ry     beta= 0.30
     Davidson diagonalization with overlap
     ethr =  8.94E-09,  avg # of iterations =  2.0

     negative rho (up, down):  2.711E-03 0.000E+00

     total cpu time spent up to now is    32685.1 secs

     total energy              =  -21903.76847867 Ry
     Harris-Foulkes estimate   =  -21903.76849128 Ry
     estimated scf accuracy    <       0.00011260 Ry

     iteration # 28     ecut=    50.00 Ry     beta= 0.30
     Davidson diagonalization with overlap
     ethr =  8.94E-09,  avg # of iterations =  1.0

     negative rho (up, down):  2.636E-03 0.000E+00

     total cpu time spent up to now is    33179.9 secs

     total energy              =  -21903.76848740 Ry
     Harris-Foulkes estimate   =  -21903.76848941 Ry
     estimated scf accuracy    <       0.00003594 Ry

     iteration # 29     ecut=    50.00 Ry     beta= 0.30
     Davidson diagonalization with overlap
     ethr =  3.40E-09,  avg # of iterations =  1.4

     negative rho (up, down):  2.440E-03 0.000E+00

     total cpu time spent up to now is    33690.6 secs

     total energy              =  -21903.76849320 Ry
     Harris-Foulkes estimate   =  -21903.76849056 Ry
     estimated scf accuracy    <       0.00001168 Ry

     iteration # 30     ecut=    50.00 Ry     beta= 0.30
     Davidson diagonalization with overlap
     ethr =  1.11E-09,  avg # of iterations =  2.0

     negative rho (up, down):  2.387E-03 0.000E+00

     total cpu time spent up to now is    34230.0 secs

     total energy              =  -21903.76849478 Ry
     Harris-Foulkes estimate   =  -21903.76849399 Ry
     estimated scf accuracy    <       0.00000060 Ry

     iteration # 31     ecut=    50.00 Ry     beta= 0.30
     Davidson diagonalization with overlap
     ethr =  5.73E-11,  avg # of iterations =  2.4

     negative rho (up, down):  2.373E-03 0.000E+00

     total cpu time spent up to now is    34975.3 secs

     total energy              =  -21903.76849503 Ry
     Harris-Foulkes estimate   =  -21903.76849499 Ry
     estimated scf accuracy    <       0.00000122 Ry

     iteration # 32     ecut=    50.00 Ry     beta= 0.30
     Davidson diagonalization with overlap
     ethr =  5.73E-11,  avg # of iterations =  1.1

     negative rho (up, down):  2.354E-03 0.000E+00

     total cpu time spent up to now is    35466.9 secs

     total energy              =  -21903.76849533 Ry
     Harris-Foulkes estimate   =  -21903.76849513 Ry
     estimated scf accuracy    <       0.00000131 Ry

     iteration # 33     ecut=    50.00 Ry     beta= 0.30
     Davidson diagonalization with overlap
     ethr =  5.73E-11,  avg # of iterations =  2.0

     negative rho (up, down):  2.328E-03 0.000E+00

     total cpu time spent up to now is    36012.4 secs

     total energy              =  -21903.76849568 Ry
     Harris-Foulkes estimate   =  -21903.76849540 Ry
     estimated scf accuracy    <       0.00000064 Ry

     iteration # 34     ecut=    50.00 Ry     beta= 0.30
     Davidson diagonalization with overlap
     ethr =  5.73E-11,  avg # of iterations =  2.0

     negative rho (up, down):  2.321E-03 0.000E+00

     total cpu time spent up to now is    36525.3 secs

     total energy              =  -21903.76849580 Ry
     Harris-Foulkes estimate   =  -21903.76849571 Ry
     estimated scf accuracy    <       0.00000004 Ry

     iteration # 35     ecut=    50.00 Ry     beta= 0.30
     Davidson diagonalization with overlap
     ethr =  4.02E-12,  avg # of iterations =  2.0

     negative rho (up, down):  2.317E-03 0.000E+00

     total cpu time spent up to now is    37004.6 secs

     total energy              =  -21903.76849585 Ry
     Harris-Foulkes estimate   =  -21903.76849580 Ry
     estimated scf accuracy    <       0.00000001 Ry

     iteration # 36     ecut=    50.00 Ry     beta= 0.30
     Davidson diagonalization with overlap
     ethr =  1.21E-12,  avg # of iterations =  2.0

     negative rho (up, down):  2.316E-03 0.000E+00

     total cpu time spent up to now is    37529.2 secs

     total energy              =  -21903.76849586 Ry
     Harris-Foulkes estimate   =  -21903.76849585 Ry
     estimated scf accuracy    <       0.00000001 Ry

     iteration # 37     ecut=    50.00 Ry     beta= 0.30
     Davidson diagonalization with overlap
     ethr =  1.21E-12,  avg # of iterations =  1.4

     negative rho (up, down):  2.316E-03 0.000E+00

     total cpu time spent up to now is    37961.6 secs

     End of self-consistent calculation

          k = 0.0000 0.0000 0.0000 ( 61453 PWs)   bands (ev):

  -107.8836-107.8788-107.8773-107.8771-107.8771-107.8768-107.8768-107.8763
  -107.8748-107.8736-107.8736-107.8735-107.8735-107.8729-107.8729-107.8726
  -107.8722-107.8720-107.8694-107.8676-107.8676-107.8676-107.8670-107.8670
  -107.8669-107.8647-107.8647-107.8629-107.8588-107.8582-107.8582-107.8582
  -107.8582-107.8576-107.8559-107.8556-107.6426-107.6385-107.6385-107.6383
  -107.6369-107.6369-107.6349-107.6329-107.6329-107.6243-107.6192-107.6192
  -107.6192-107.6191-107.6191-107.6191-107.6166-107.6166 -65.3380 -65.3249
   -65.3244 -65.3244 -65.3241 -65.3241 -65.3237 -65.3168 -65.3168 -65.3168
   -65.3165 -65.3165 -65.3161 -65.3161 -65.3159 -65.3127 -65.3127 -65.3126
   -65.3124 -65.3105 -65.3048 -65.3048 -65.3047 -65.3041 -65.3040 -65.3040
   -65.3021 -65.3021 -65.3021 -65.3018 -65.3018 -65.3015 -65.3013 -65.3013
   -65.2988 -65.2988 -65.2983 -65.2982 -65.2927 -65.2927 -65.2926 -65.2922
   -65.2922 -65.2922 -65.2913 -65.2913 -65.2878 -65.2878 -65.2859 -65.2847
   -65.2846 -65.2843 -65.2843 -65.2843 -65.2843 -65.2841 -65.2826 -65.2774
   -65.2774 -65.2764 -65.2764 -65.2763 -65.2760 -65.2760 -65.2760 -65.2743
   -65.2742 -65.2742 -65.2736 -65.2733 -65.2733 -65.2728 -65.2728 -65.2701
   -65.2701 -65.2664 -65.2661 -65.2661 -65.2659 -65.2659 -65.2659 -65.2659
   -65.2658 -65.2654 -65.2653 -65.2651 -65.2651 -65.2625 -65.2597 -65.2597
   -65.2594 -65.2592 -65.2592 -65.2591 -65.2591 -65.2591 -65.2533 -65.2533
   -65.2516 -65.2516 -65.2515 -65.2513 -65.2512 -65.2512 -65.2473 -65.2473
   -65.2406 -65.2406 -65.0955 -65.0952 -65.0952 -65.0940 -65.0940 -65.0938
   -65.0915 -65.0915 -65.0915 -65.0903 -65.0785 -65.0785 -65.0784 -65.0784
   -65.0783 -65.0783 -65.0759 -65.0759 -65.0755 -65.0754 -65.0602 -65.0595
   -65.0595 -65.0584 -65.0584 -65.0579 -65.0467 -65.0467 -65.0431 -65.0431
   -65.0431 -65.0431 -65.0431 -65.0429 -65.0309 -65.0309 -65.0179 -65.0142
   -65.0141 -65.0139 -65.0125 -65.0125 -65.0101 -65.0081 -65.0081 -64.9964
   -64.9916 -64.9916 -64.9916 -64.9915 -64.9915 -64.9915 -64.9891 -64.9891
   -12.5240  -9.7827  -9.7825  -6.1956  -6.1950  -4.2730  -4.1482  -3.5274
    -2.6823  -2.5760  -2.2793  -1.6342  -1.6341  -1.4468  -1.1829  -1.1827
    -1.1827  -1.1826  -1.1826  -1.1825  -0.7791  -0.7780  -0.7780  -0.7780
    -0.7779  -0.7779  -0.5981  -0.3792  -0.2803  -0.2775  -0.2775  -0.2775
    -0.2774  -0.2774  -0.2597   0.1730   0.1730   0.1732   0.1732   0.1734
     0.1754   0.3000   0.3002   0.5230   0.5230   0.5234   0.5237   0.5237
     0.5246   0.6482   0.6482   0.6483   0.6484   0.6484   0.6486   0.6979
     0.6979   0.6980   0.6981   0.6981   0.6984   0.7259   0.7259   0.7398
     0.7398   0.7513   0.7514   0.8470   0.8470   0.8545   0.8545   0.8765
     0.8765   0.8766   0.8768   0.8768   0.8772   0.8848   0.8848   0.8859
     0.8859   0.9371   0.9371   0.9776   0.9776   1.0862   1.0862   1.0899
     1.0899   1.0902   1.0903   1.0903   1.0909   1.1223   1.1223   1.3256
     1.3256   1.3263   1.3266   1.3267   1.3275   1.4553   1.4553   1.4633
     1.4633   1.4782   1.4782   1.4788   1.4788   1.4789   1.4793   1.5170
     1.5233   1.5233   1.5369   1.5916   1.5916   1.5922   1.5922   1.5922
     1.5925   1.6051   1.6051   1.6301   1.6301   1.6619   1.6667   1.6667
     1.6777   1.6777   1.6786   1.6786   1.6787   1.6791   1.7166   1.7166
     1.7297   1.7297   1.7300   1.7300   1.7301   1.7303   1.7490   1.7491
     1.7491   1.7494   1.7494   1.7495   1.7553   1.7553   1.7726   1.8731
     1.8731   1.8775   1.8775   1.8805   1.8805   1.8807   1.8817   1.8939
     1.8939   1.9053   1.9056   1.9238   1.9238   1.9257   1.9258   1.9498
     1.9498   1.9513   1.9513   1.9513   1.9517   1.9518   1.9518   2.1220
     2.1220   2.1455   2.1457   2.1457   2.1477   2.2101   2.2103   2.2103
     2.2105   2.2105   2.2106   2.2432   2.2432   2.2771   2.2771   2.2774
     2.2790   2.2853   2.2853   2.2895   2.2895   2.3114   2.3114   2.3498
     2.3632   2.3632   2.3776   2.3776   2.4072   2.4072   2.4159   2.4160
     2.4160   2.4176   2.4398   2.4398   2.4407   2.4407   2.4407   2.4410
     2.4411   2.4411   2.4447   2.4447   2.4496   2.4496   2.5153   2.5153
     2.5795   2.5796   2.5796   2.5797   2.5798   2.5798   2.6372   2.6377
     2.6377   2.6386   2.6387   2.6387   2.6389   2.6389   2.6389   2.6390
     2.6441   2.6441   2.7037   2.7037   2.7077   2.7077   2.7078   2.7080
     2.7081   2.7081   2.7191   2.7191   2.7192   2.7194   2.7194   2.7194
     2.7437   2.7438   2.7438   2.7440   2.7440   2.7440   2.7768   2.7768
     2.7845   2.7845   2.8148   2.8149   2.8149   2.8153   2.8154   2.8154
     2.8173   2.8174   2.8393   2.8395   2.8395   2.8397   2.8397   2.8398
     2.8683   2.8683   2.8703   2.8703   2.8724   2.8724   2.8910   2.8911
     2.9069   2.9070   2.9070   2.9073   2.9073   2.9074   2.9333   2.9335
     2.9335   2.9341   2.9341   2.9372   2.9526   2.9526   2.9838   2.9838
     2.9838   2.9842   2.9842   2.9842   3.7993   3.9171   3.9171   3.9172
     3.9275   3.9361   3.9361   4.3837   5.3491   5.3491   5.3520   5.3654
     5.3782   5.3783   7.0572   7.0572   7.0639   7.1281   7.1854   7.1854
     7.2604   7.5083   7.5085   7.7765   7.7766   7.7768   7.7768   7.7922
     7.7922   8.1617   8.1707   8.1707   8.1897   8.1897   8.5119   8.5904
     8.5910   8.7767   8.8478   8.8482   8.8588   8.8588   8.9505   8.9505
     8.9838   9.1911   9.4632   9.4632   9.4689   9.4689   9.4948   9.7932
     9.7934   9.8475   9.8475   9.8765  10.5324  10.5573  10.6310  10.6310
    10.6391  10.6391  10.7784  10.7784  10.8269  10.8269  10.8442  11.0469
    11.1826  11.1826  11.2760  11.2760  11.2833  11.2918  11.2918  11.3214
    11.4113  11.7030  11.7030  11.7831  11.7874  11.7874  11.8386  11.8386
    11.8536  11.8536  11.8562  11.9392  11.9392  12.0137  12.0943  12.2063
    12.2063  12.2356  12.3030  12.3030  12.3276  12.4559  12.4559  12.6850
    12.9189  12.9207  12.9208  12.9729  12.9808  12.9809  12.9822  13.0270
    13.0661  13.0814

          k = 0.0000 0.2887 0.0000 ( 61417 PWs)   bands (ev):

  -107.8831-107.8795-107.8783-107.8778-107.8774-107.8761-107.8758-107.8753
  -107.8749-107.8741-107.8740-107.8734-107.8734-107.8731-107.8728-107.8722
  -107.8720-107.8718-107.8694-107.8690-107.8680-107.8679-107.8666-107.8665
  -107.8660-107.8649-107.8649-107.8625-107.8598-107.8588-107.8588-107.8575
  -107.8574-107.8569-107.8561-107.8558-107.6423-107.6395-107.6386-107.6380
  -107.6367-107.6366-107.6348-107.6329-107.6328-107.6238-107.6209-107.6198
  -107.6198-107.6183-107.6183-107.6179-107.6168-107.6168 -65.3366 -65.3274
   -65.3269 -65.3257 -65.3246 -65.3245 -65.3241 -65.3239 -65.3208 -65.3208
   -65.3200 -65.3200 -65.3182 -65.3181 -65.3135 -65.3121 -65.3121 -65.3100
   -65.3095 -65.3084 -65.3083 -65.3082 -65.3081 -65.3079 -65.3058 -65.3057
   -65.3054 -65.3052 -65.3011 -65.3011 -65.2980 -65.2979 -65.2978 -65.2966
   -65.2965 -65.2959 -65.2952 -65.2952 -65.2931 -65.2931 -65.2907 -65.2906
   -65.2873 -65.2871 -65.2870 -65.2866 -65.2858 -65.2857 -65.2850 -65.2839
   -65.2837 -65.2826 -65.2824 -65.2811 -65.2809 -65.2808 -65.2800 -65.2793
   -65.2792 -65.2773 -65.2771 -65.2770 -65.2769 -65.2767 -65.2766 -65.2742
   -65.2741 -65.2719 -65.2719 -65.2712 -65.2712 -65.2696 -65.2695 -65.2693
   -65.2687 -65.2685 -65.2685 -65.2682 -65.2680 -65.2679 -65.2679 -65.2662
   -65.2662 -65.2644 -65.2643 -65.2639 -65.2632 -65.2626 -65.2623 -65.2621
   -65.2620 -65.2615 -65.2608 -65.2586 -65.2585 -65.2569 -65.2553 -65.2553
   -65.2553 -65.2543 -65.2540 -65.2517 -65.2517 -65.2509 -65.2484 -65.2478
   -65.2447 -65.2416 -65.1060 -65.1006 -65.1006 -65.0990 -65.0987 -65.0899
   -65.0872 -65.0871 -65.0844 -65.0843 -65.0832 -65.0831 -65.0815 -65.0814
   -65.0784 -65.0713 -65.0712 -65.0655 -65.0655 -65.0635 -65.0630 -65.0626
   -65.0618 -65.0589 -65.0588 -65.0549 -65.0509 -65.0478 -65.0471 -65.0471
   -65.0460 -65.0431 -65.0430 -65.0390 -65.0352 -65.0320 -65.0175 -65.0150
   -65.0142 -65.0136 -65.0124 -65.0123 -65.0100 -65.0081 -65.0081 -64.9959
   -64.9931 -64.9921 -64.9921 -64.9908 -64.9907 -64.9904 -64.9893 -64.9893
   -12.5232  -9.7863  -9.7832  -6.1983  -6.1909  -4.2468  -3.9348  -3.3183
    -2.6548  -2.3751  -2.3317  -2.2829  -1.7836  -1.6822  -1.6420  -1.6207
    -1.6199  -1.2590  -1.1366  -1.1361  -0.9817  -0.5647  -0.5646  -0.4862
    -0.4727  -0.4519  -0.3534  -0.3326  -0.2782  -0.2777  -0.1431  -0.1100
    -0.1054  -0.0076  -0.0031  -0.0029   0.1732   0.1742   0.2032   0.2603
     0.2683   0.2691   0.3008   0.4529   0.4576   0.4875   0.4875   0.5140
     0.5235   0.5235   0.5476   0.5476   0.5944   0.5953   0.5969   0.5973
     0.6098   0.6099   0.6498   0.6498   0.6867   0.6867   0.7150   0.7151
     0.7236   0.7659   0.7662   0.7807   0.7807   0.8031   0.8033   0.8160
     0.8160   0.8500   0.8501   0.8905   0.9592   0.9592   0.9658   0.9895
     0.9895   1.0039   1.0041   1.0401   1.0401   1.0744   1.0771   1.0771
     1.1394   1.1394   1.1656   1.1664   1.1869   1.1870   1.2320   1.2321
     1.2489   1.2690   1.2756   1.2758   1.3039   1.3440   1.3442   1.3638
     1.3639   1.3705   1.4076   1.4088   1.4190   1.4439   1.4439   1.4509
     1.4837   1.4839   1.5128   1.5496   1.5618   1.5722   1.5722   1.5850
     1.5852   1.5854   1.6232   1.6243   1.6293   1.6418   1.6419   1.6573
     1.6625   1.6626   1.6792   1.6825   1.6928   1.7002   1.7122   1.7208
     1.7209   1.7306   1.7357   1.7361   1.7376   1.7550   1.7555   1.7588
     1.7588   1.7629   1.7831   1.7857   1.7963   1.8077   1.8087   1.8177
     1.8192   1.8321   1.8326   1.8681   1.8682   1.8778   1.8781   1.8790
     1.8935   1.9023   1.9023   1.9035   1.9123   1.9134   1.9189   1.9338
     1.9695   1.9761   1.9815   1.9816   1.9886   1.9888   1.9999   2.0132
     2.0153   2.0164   2.0196   2.0420   2.0421   2.0558   2.0896   2.0930
     2.1228   2.1237   2.1336   2.1342   2.1402   2.1402   2.2030   2.2188
     2.2418   2.2450   2.2508   2.2522   2.2653   2.2657   2.2700   2.2901
     2.2946   2.3054   2.3079   2.3145   2.3211   2.3262   2.3543   2.3560
     2.3766   2.3839   2.3850   2.3891   2.3937   2.4193   2.4248   2.4249
     2.4305   2.4358   2.4615   2.4737   2.4769   2.4832   2.4834   2.5008
     2.5051   2.5054   2.5218   2.5254   2.5255   2.5265   2.5347   2.5381
     2.5628   2.5729   2.6101   2.6137   2.6196   2.6476   2.6484   2.6564
     2.6597   2.6600   2.6608   2.6639   2.6843   2.6845   2.6873   2.6995
     2.7016   2.7044   2.7076   2.7098   2.7350   2.7529   2.7530   2.7575
     2.7670   2.7671   2.7884   2.7890   2.7951   2.7961   2.8395   2.8403
     2.8403   2.8508   2.8508   2.8532   2.8642   2.8651   2.8732   2.8754
     2.8755   2.8764   2.8835   2.8836   2.8848   2.8911   2.8994   2.8994
     2.9169   2.9297   2.9298   2.9305   2.9319   2.9378   2.9393   2.9394
     2.9614   2.9706   2.9763   2.9815   2.9817   2.9864   2.9992   2.9995
     3.0746   3.0888   3.1269   3.2243   3.2470   3.2471   3.3203   3.4076
     3.4077   3.6613   3.7142   3.7146   3.7179   3.7255   4.0268   4.2113
     4.4036   4.6893   4.6898   4.8949   4.9876   4.9954   5.0386   5.7736
     5.7737   5.9882   6.1470   6.1535   6.1727   6.1730   6.4254   6.6754
     6.7113   6.8537   6.8575   7.2714   7.4140   7.4418   7.4741   7.6731
     7.7076   7.7160   7.9023   7.9539   8.1673   8.1715   8.2594   8.3171
     8.3611   8.6418   8.6429   8.7632   8.8058   8.9126   9.1928   9.1939
     9.2999   9.3600   9.5572   9.5894   9.7557   9.7965   9.9110   9.9383
     9.9490   9.9636  10.0004  10.0573  10.2591  10.3434  10.3439  10.4659
    10.4950  10.5088  10.5946  10.5969  10.6826  10.7265  10.7285  10.7973
    10.8810  10.8912  10.9059  11.0912  11.1038  11.2044  11.4004  11.4252
    11.4365  11.4760  11.4887  11.5673  11.6565  11.7509  11.8981  11.9917
    12.0292  12.1343  12.1877  12.2747  12.2926  12.3906  12.4786  12.5121
    12.5203  12.5614  12.5742  12.6551  12.7945  12.7951  12.8332  12.8586
    12.9426  12.9693  13.0851  13.1043  13.1518  13.1826  13.1876  13.2854
    13.3907  13.4622

          k = 0.0000-0.5774 0.0000 ( 61408 PWs)   bands (ev):

  -107.8818-107.8812-107.8784-107.8781-107.8770-107.8761-107.8752-107.8747
  -107.8744-107.8744-107.8742-107.8741-107.8739-107.8730-107.8724-107.8722
  -107.8720-107.8708-107.8704-107.8694-107.8682-107.8681-107.8660-107.8660
  -107.8658-107.8652-107.8651-107.8616-107.8611-107.8590-107.8590-107.8571
  -107.8567-107.8567-107.8566-107.8559-107.6416-107.6405-107.6387-107.6381
  -107.6365-107.6364-107.6348-107.6330-107.6328-107.6226-107.6225-107.6200
  -107.6200-107.6175-107.6175-107.6174-107.6174-107.6174 -65.3328 -65.3324
   -65.3300 -65.3286 -65.3247 -65.3247 -65.3235 -65.3234 -65.3229 -65.3228
   -65.3218 -65.3217 -65.3216 -65.3212 -65.3176 -65.3111 -65.3107 -65.3106
   -65.3101 -65.3101 -65.3099 -65.3098 -65.3090 -65.3088 -65.3064 -65.3064
   -65.3061 -65.3059 -65.2989 -65.2988 -65.2977 -65.2975 -65.2973 -65.2970
   -65.2956 -65.2920 -65.2919 -65.2890 -65.2883 -65.2882 -65.2882 -65.2879
   -65.2878 -65.2871 -65.2852 -65.2851 -65.2847 -65.2845 -65.2843 -65.2841
   -65.2812 -65.2812 -65.2811 -65.2803 -65.2802 -65.2800 -65.2798 -65.2784
   -65.2753 -65.2751 -65.2747 -65.2746 -65.2745 -65.2739 -65.2738 -65.2738
   -65.2737 -65.2736 -65.2735 -65.2730 -65.2706 -65.2706 -65.2702 -65.2701
   -65.2697 -65.2693 -65.2676 -65.2674 -65.2666 -65.2664 -65.2664 -65.2662
   -65.2652 -65.2649 -65.2648 -65.2641 -65.2633 -65.2631 -65.2631 -65.2626
   -65.2625 -65.2622 -65.2622 -65.2592 -65.2591 -65.2590 -65.2589 -65.2576
   -65.2570 -65.2554 -65.2551 -65.2550 -65.2531 -65.2530 -65.2514 -65.2511
   -65.2444 -65.2440 -65.1101 -65.1028 -65.1028 -65.1017 -65.1013 -65.0941
   -65.0863 -65.0862 -65.0862 -65.0862 -65.0836 -65.0834 -65.0719 -65.0716
   -65.0706 -65.0704 -65.0676 -65.0675 -65.0635 -65.0630 -65.0623 -65.0598
   -65.0592 -65.0552 -65.0552 -65.0552 -65.0551 -65.0515 -65.0501 -65.0471
   -65.0468 -65.0468 -65.0441 -65.0440 -65.0350 -65.0349 -65.0170 -65.0158
   -65.0143 -65.0137 -65.0122 -65.0121 -65.0100 -65.0082 -65.0080 -64.9948
   -64.9947 -64.9923 -64.9923 -64.9900 -64.9900 -64.9899 -64.9899 -64.9899
   -12.5224  -9.7898  -9.7840  -6.2017  -6.1862  -4.2199  -3.3092  -3.3090
    -2.7102  -2.7101  -2.6270  -2.2867  -1.8056  -1.8015  -1.7766  -1.7765
    -1.7255  -1.6481  -1.2664  -1.2658  -0.7531  -0.7377  -0.5482  -0.5435
    -0.3712  -0.1640   0.0198   0.0216   0.0341   0.0400   0.0401   0.0403
     0.0403   0.1278   0.1964   0.2009   0.2092   0.2124   0.2193   0.2258
     0.2381   0.2381   0.2382   0.2382   0.2931   0.2941   0.2942   0.2943
     0.3015   0.4210   0.4588   0.4589   0.4591   0.4593   0.4990   0.5408
     0.6361   0.6362   0.6363   0.6363   0.6509   0.6733   0.6742   0.6904
     0.6904   0.6906   0.6906   0.8102   0.8102   0.8104   0.8104   0.8329
     0.8332   0.9218   0.9343   0.9343   0.9344   0.9344   0.9703   0.9704
     1.0149   1.0149   1.0862   1.0863   1.0863   1.0864   1.1468   1.1469
     1.1762   1.1765   1.1971   1.1972   1.1976   1.1977   1.2147   1.2147
     1.2507   1.2525   1.3030   1.3154   1.3158   1.3437   1.3441   1.3641
     1.3652   1.3730   1.3730   1.3733   1.3733   1.4299   1.4305   1.4348
     1.4349   1.4352   1.4353   1.4860   1.4880   1.5094   1.5095   1.5097
     1.5098   1.5193   1.5208   1.5208   1.5783   1.5821   1.6047   1.6061
     1.6066   1.6209   1.6240   1.6570   1.6576   1.6577   1.6579   1.6579
     1.6709   1.6732   1.7210   1.7212   1.7311   1.7314   1.7440   1.7441
     1.7785   1.7788   1.7788   1.7789   1.8015   1.8021   1.8029   1.8030
     1.8033   1.8320   1.8322   1.8327   1.8330   1.8641   1.8644   1.8846
     1.8940   1.8942   1.9556   1.9565   1.9626   1.9629   1.9659   1.9661
     1.9674   1.9674   1.9756   1.9767   1.9831   1.9832   1.9919   2.0090
     2.0104   2.0175   2.0179   2.0186   2.0189   2.0838   2.0899   2.0984
     2.0984   2.1491   2.1737   2.1800   2.1808   2.1810   2.1858   2.1887
     2.1890   2.1898   2.1948   2.1952   2.2183   2.2214   2.2221   2.2584
     2.2604   2.2605   2.2622   2.2802   2.2804   2.2804   2.2805   2.2836
     2.2852   2.3063   2.3065   2.3128   2.3139   2.3274   2.3393   2.3911
     2.4310   2.4365   2.4366   2.4643   2.4644   2.4650   2.4656   2.4966
     2.4973   2.5008   2.5136   2.5363   2.5371   2.5402   2.5403   2.5502
     2.5636   2.5720   2.5770   2.5771   2.5772   2.5774   2.5900   2.6108
     2.6109   2.6122   2.6139   2.6666   2.6667   2.6671   2.6674   2.6776
     2.6784   2.7036   2.7039   2.7334   2.7336   2.7371   2.7379   2.7645
     2.7645   2.7895   2.7922   2.7957   2.8133   2.8530   2.8546   2.8650
     2.8659   2.8746   2.8749   2.8891   2.9025   2.9027   2.9069   2.9071
     2.9085   2.9091   2.9246   2.9293   2.9293   2.9296   2.9297   2.9468
     2.9479   2.9481   2.9542   2.9583   2.9736   2.9764   2.9959   2.9960
     2.9964   2.9973   3.0038   3.0111   3.0330   3.0463   3.0464   3.0471
     3.0472   3.1541   3.1680   3.6857   3.6974   3.6999   3.7045   4.2141
     4.2580   4.2580   4.2582   4.2583   4.5285   4.5288   4.5293   4.5294
     4.8777   4.8817   4.8943   4.9988   5.0217   5.0850   5.0870   5.0880
     5.0892   5.3731   5.7123   5.9663   5.9905   5.9948   6.0618   6.0700
     6.0716   6.0751   6.1295   6.5334   6.5736   7.2689   7.3547   7.3809
     7.3814   7.4100   7.5972   7.9553   7.9823   8.1030   8.2397   8.3820
     8.5034   8.5053   8.5066   8.5206   8.8709   8.8965   8.9092   9.1524
     9.1547   9.1549   9.1620   9.2632   9.4626   9.5788   9.6863   9.7705
     9.7786   9.8129   9.8269   9.8549   9.8856  10.2490  10.3285  10.3386
    10.3799  10.4227  10.4527  10.4573  10.4736  10.8063  10.8729  11.0226
    11.1113  11.1904  11.2414  11.2505  11.3075  11.3734  11.3899  11.3953
    11.4675  11.5366  11.6893  12.0265  12.0942  12.1391  12.1678  12.2160
    12.2356  12.2880  12.4439  12.4926  12.7269  12.8117  12.8542  12.9378
    12.9498  12.9929  13.0188  13.0392  13.0572  13.1812  13.1857  13.1996
    13.2044  13.2602  13.2951  13.3319  13.4279  13.5893  13.6321  13.6332
    13.6897  13.7823

          k = 0.2500-0.7217 0.0000 ( 61343 PWs)   bands (ev):

  -107.8821-107.8804-107.8797-107.8775-107.8762-107.8761-107.8758-107.8751
  -107.8748-107.8743-107.8742-107.8738-107.8736-107.8729-107.8726-107.8722
  -107.8720-107.8710-107.8698-107.8694-107.8693-107.8670-107.8665-107.8659
  -107.8658-107.8652-107.8650-107.8618-107.8605-107.8601-107.8579-107.8575
  -107.8569-107.8566-107.8564-107.8559-107.6416-107.6402-107.6392-107.6377
  -107.6366-107.6364-107.6348-107.6330-107.6328-107.6230-107.6215-107.6214
  -107.6186-107.6185-107.6175-107.6174-107.6174-107.6170 -65.3339 -65.3294
   -65.3289 -65.3281 -65.3278 -65.3268 -65.3265 -65.3251 -65.3234 -65.3219
   -65.3216 -65.3205 -65.3177 -65.3159 -65.3155 -65.3154 -65.3152 -65.3127
   -65.3097 -65.3091 -65.3090 -65.3088 -65.3086 -65.3071 -65.3069 -65.3060
   -65.3052 -65.3050 -65.3023 -65.3019 -65.2970 -65.2967 -65.2962 -65.2955
   -65.2930 -65.2929 -65.2921 -65.2919 -65.2916 -65.2887 -65.2882 -65.2879
   -65.2870 -65.2863 -65.2859 -65.2858 -65.2848 -65.2820 -65.2817 -65.2817
   -65.2815 -65.2814 -65.2812 -65.2800 -65.2798 -65.2795 -65.2792 -65.2778
   -65.2776 -65.2763 -65.2761 -65.2758 -65.2756 -65.2752 -65.2735 -65.2724
   -65.2722 -65.2721 -65.2719 -65.2715 -65.2711 -65.2706 -65.2704 -65.2702
   -65.2701 -65.2688 -65.2687 -65.2679 -65.2674 -65.2672 -65.2668 -65.2654
   -65.2651 -65.2644 -65.2643 -65.2643 -65.2641 -65.2641 -65.2639 -65.2638
   -65.2619 -65.2617 -65.2613 -65.2594 -65.2592 -65.2584 -65.2583 -65.2582
   -65.2574 -65.2573 -65.2551 -65.2541 -65.2540 -65.2532 -65.2495 -65.2476
   -65.2475 -65.2438 -65.1082 -65.1075 -65.1050 -65.0983 -65.0949 -65.0939
   -65.0919 -65.0918 -65.0890 -65.0825 -65.0785 -65.0785 -65.0751 -65.0733
   -65.0720 -65.0717 -65.0669 -65.0660 -65.0654 -65.0648 -65.0590 -65.0588
   -65.0569 -65.0561 -65.0561 -65.0542 -65.0540 -65.0503 -65.0503 -65.0500
   -65.0495 -65.0494 -65.0429 -65.0383 -65.0383 -65.0342 -65.0170 -65.0156
   -65.0147 -65.0134 -65.0122 -65.0121 -65.0100 -65.0082 -65.0080 -64.9951
   -64.9938 -64.9937 -64.9910 -64.9909 -64.9900 -64.9900 -64.9899 -64.9896
   -12.5224  -9.7884  -9.7854  -6.1977  -6.1901  -4.2201  -3.5147  -2.9090
    -2.7086  -2.7084  -2.6268  -2.2865  -2.1344  -2.1342  -1.9868  -1.7106
    -1.6698  -1.2769  -1.2747  -0.9056  -0.6978  -0.6977  -0.4146  -0.3471
    -0.3462  -0.3032  -0.2735  -0.1069  -0.1068  -0.0974   0.0680   0.0686
     0.0877   0.0878   0.1041   0.1538   0.1660   0.1661   0.1832   0.2394
     0.2799   0.2819   0.2858   0.2888   0.2890   0.3625   0.3658   0.4269
     0.4272   0.4390   0.4498   0.4773   0.4774   0.4802   0.4988   0.4996
     0.5672   0.5673   0.5924   0.5943   0.6245   0.6246   0.6495   0.6588
     0.6589   0.7274   0.7274   0.7540   0.7763   0.7869   0.7870   0.8625
     0.8629   0.9137   0.9331   0.9333   0.9626   0.9627   1.0199   1.0291
     1.0293   1.0446   1.0446   1.0592   1.0973   1.1249   1.1249   1.1672
     1.1675   1.1946   1.2000   1.2004   1.2016   1.2179   1.2181   1.2777
     1.2779   1.2808   1.2808   1.2838   1.2964   1.3132   1.3143   1.3275
     1.3280   1.3554   1.3564   1.3792   1.3811   1.3817   1.4008   1.4249
     1.4658   1.4739   1.4741   1.4745   1.4753   1.5042   1.5232   1.5272
     1.5279   1.5648   1.5649   1.5659   1.5687   1.5748   1.5979   1.6192
     1.6193   1.6363   1.6364   1.6628   1.6640   1.6732   1.6733   1.6860
     1.6866   1.7008   1.7009   1.7184   1.7187   1.7333   1.7420   1.7658
     1.7782   1.7807   1.7843   1.8020   1.8044   1.8049   1.8117   1.8200
     1.8206   1.8298   1.8299   1.8439   1.8481   1.8492   1.8495   1.8543
     1.8717   1.8770   1.9002   1.9167   1.9183   1.9259   1.9290   1.9298
     1.9366   1.9375   1.9377   1.9407   1.9458   1.9511   1.9524   1.9533
     2.0125   2.0135   2.0743   2.0750   2.0839   2.0874   2.0878   2.0923
     2.1157   2.1159   2.1308   2.1333   2.1397   2.1591   2.1722   2.1729
     2.1993   2.2007   2.2185   2.2420   2.2447   2.2516   2.2523   2.2560
     2.2568   2.2580   2.2632   2.2652   2.2724   2.2735   2.2986   2.3185
     2.3396   2.3421   2.3435   2.3473   2.3560   2.3582   2.3612   2.3857
     2.3913   2.3985   2.4100   2.4352   2.4375   2.4532   2.4597   2.4612
     2.4709   2.4735   2.5044   2.5129   2.5183   2.5188   2.5453   2.5457
     2.5673   2.5738   2.5744   2.5926   2.5936   2.6162   2.6166   2.6175
     2.6210   2.6237   2.6369   2.6371   2.6417   2.6479   2.6507   2.6681
     2.7057   2.7125   2.7127   2.7153   2.7632   2.7635   2.7735   2.7751
     2.8059   2.8187   2.8191   2.8248   2.8251   2.8398   2.8426   2.8693
     2.8699   2.8701   2.8797   2.8798   2.8913   2.8931   2.8943   2.8945
     2.8963   2.9038   2.9040   2.9047   2.9072   2.9218   2.9223   2.9374
     2.9380   2.9429   2.9484   2.9485   2.9599   2.9759   2.9806   2.9867
     2.9870   3.0042   3.0357   3.0359   3.0464   3.0678   3.0681   3.2219
     3.2261   3.3356   3.3356   3.4377   3.4380   3.5400   3.7626   3.7646
     4.1414   4.1521   4.2464   4.2467   4.2597   4.5224   4.6327   4.6379
     4.6546   4.6547   4.7779   5.1005   5.1281   5.1290   5.5722   5.6127
     5.6316   5.6751   5.8649   5.8845   5.8862   6.0164   6.0222   6.1075
     6.1796   6.5523   6.6308   6.6326   6.8063   6.8669   6.9531   7.0089
     7.0096   7.3026   7.3901   7.4085   7.5617   7.7685   7.8344   7.9282
     8.4276   8.4306   8.4655   8.5341   8.7154   9.0453   9.0913   9.1239
     9.1985   9.2837   9.3261   9.4378   9.4464   9.6089   9.6453   9.6530
     9.7747   9.8264  10.0094  10.1145  10.1392  10.3229  10.3831  10.4647
    10.4937  10.5670  10.6461  10.7661  10.8010  11.0292  11.1317  11.1412
    11.2459  11.2813  11.4040  11.4357  11.4410  11.5849  11.6205  11.6660
    11.6801  11.7635  11.8077  11.8367  11.9751  12.0726  12.1082  12.1762
    12.2614  12.3321  12.3572  12.3881  12.4506  12.4673  12.5334  12.5870
    12.6831  12.7042  12.7910  12.9010  12.9403  12.9501  13.1391  13.2327
    13.2610  13.2824  13.3590  13.3850  13.4558  13.4814  13.5288  13.6138
    13.6457  13.6600

          k =-0.2500 0.1443 0.0000 ( 61417 PWs)   bands (ev):

  -107.8831-107.8795-107.8783-107.8778-107.8774-107.8761-107.8758-107.8753
  -107.8749-107.8741-107.8740-107.8734-107.8734-107.8731-107.8728-107.8722
  -107.8720-107.8718-107.8694-107.8690-107.8680-107.8679-107.8666-107.8665
  -107.8660-107.8649-107.8649-107.8625-107.8598-107.8588-107.8588-107.8575
  -107.8574-107.8569-107.8561-107.8558-107.6423-107.6395-107.6386-107.6380
  -107.6367-107.6366-107.6348-107.6329-107.6328-107.6238-107.6209-107.6198
  -107.6198-107.6183-107.6183-107.6179-107.6168-107.6168 -65.3366 -65.3274
   -65.3269 -65.3257 -65.3246 -65.3245 -65.3241 -65.3239 -65.3208 -65.3208
   -65.3200 -65.3200 -65.3182 -65.3181 -65.3135 -65.3121 -65.3121 -65.3100
   -65.3095 -65.3084 -65.3083 -65.3082 -65.3081 -65.3079 -65.3058 -65.3057
   -65.3054 -65.3052 -65.3011 -65.3011 -65.2980 -65.2979 -65.2978 -65.2966
   -65.2965 -65.2959 -65.2952 -65.2952 -65.2931 -65.2931 -65.2907 -65.2906
   -65.2873 -65.2871 -65.2870 -65.2866 -65.2858 -65.2857 -65.2850 -65.2839
   -65.2837 -65.2826 -65.2824 -65.2811 -65.2809 -65.2808 -65.2800 -65.2793
   -65.2792 -65.2773 -65.2771 -65.2770 -65.2769 -65.2767 -65.2766 -65.2742
   -65.2741 -65.2719 -65.2719 -65.2712 -65.2712 -65.2696 -65.2695 -65.2692
   -65.2687 -65.2685 -65.2685 -65.2682 -65.2680 -65.2679 -65.2679 -65.2662
   -65.2662 -65.2644 -65.2643 -65.2639 -65.2632 -65.2626 -65.2623 -65.2621
   -65.2620 -65.2615 -65.2608 -65.2586 -65.2585 -65.2569 -65.2553 -65.2553
   -65.2553 -65.2543 -65.2540 -65.2517 -65.2517 -65.2509 -65.2484 -65.2478
   -65.2447 -65.2416 -65.1060 -65.1006 -65.1006 -65.0990 -65.0987 -65.0899
   -65.0872 -65.0871 -65.0844 -65.0843 -65.0832 -65.0831 -65.0815 -65.0814
   -65.0784 -65.0713 -65.0712 -65.0655 -65.0655 -65.0635 -65.0630 -65.0626
   -65.0618 -65.0589 -65.0588 -65.0549 -65.0509 -65.0478 -65.0471 -65.0471
   -65.0460 -65.0431 -65.0430 -65.0390 -65.0352 -65.0320 -65.0175 -65.0150
   -65.0142 -65.0137 -65.0124 -65.0123 -65.0100 -65.0082 -65.0081 -64.9959
   -64.9931 -64.9921 -64.9921 -64.9908 -64.9907 -64.9904 -64.9893 -64.9893
   -12.5232  -9.7861  -9.7835  -6.1988  -6.1905  -4.2468  -3.9348  -3.3183
    -2.6548  -2.3751  -2.3317  -2.2829  -1.7836  -1.6821  -1.6421  -1.6207
    -1.6199  -1.2590  -1.1366  -1.1361  -0.9817  -0.5647  -0.5646  -0.4862
    -0.4727  -0.4519  -0.3534  -0.3326  -0.2782  -0.2777  -0.1431  -0.1100
    -0.1054  -0.0076  -0.0031  -0.0029   0.1732   0.1742   0.2032   0.2605
     0.2683   0.2691   0.3005   0.4529   0.4576   0.4875   0.4875   0.5140
     0.5235   0.5235   0.5476   0.5476   0.5944   0.5953   0.5969   0.5973
     0.6098   0.6099   0.6498   0.6498   0.6867   0.6867   0.7150   0.7151
     0.7236   0.7659   0.7662   0.7807   0.7807   0.8031   0.8033   0.8160
     0.8160   0.8500   0.8501   0.8905   0.9592   0.9592   0.9658   0.9895
     0.9895   1.0039   1.0041   1.0401   1.0401   1.0744   1.0771   1.0771
     1.1394   1.1394   1.1656   1.1664   1.1869   1.1870   1.2320   1.2321
     1.2489   1.2690   1.2756   1.2758   1.3039   1.3440   1.3442   1.3638
     1.3639   1.3705   1.4076   1.4088   1.4190   1.4439   1.4439   1.4509
     1.4837   1.4839   1.5128   1.5496   1.5618   1.5722   1.5722   1.5850
     1.5852   1.5854   1.6232   1.6243   1.6293   1.6418   1.6419   1.6573
     1.6625   1.6626   1.6792   1.6825   1.6928   1.7002   1.7122   1.7208
     1.7209   1.7306   1.7357   1.7361   1.7376   1.7550   1.7555   1.7588
     1.7588   1.7629   1.7831   1.7857   1.7963   1.8077   1.8087   1.8177
     1.8192   1.8321   1.8326   1.8681   1.8682   1.8778   1.8781   1.8790
     1.8935   1.9023   1.9023   1.9035   1.9123   1.9134   1.9189   1.9338
     1.9695   1.9761   1.9815   1.9816   1.9886   1.9888   1.9999   2.0132
     2.0153   2.0164   2.0196   2.0420   2.0421   2.0558   2.0896   2.0930
     2.1228   2.1237   2.1336   2.1342   2.1402   2.1402   2.2030   2.2188
     2.2418   2.2450   2.2508   2.2522   2.2653   2.2657   2.2701   2.2900
     2.2946   2.3054   2.3079   2.3145   2.3211   2.3262   2.3543   2.3560
     2.3766   2.3839   2.3850   2.3891   2.3937   2.4193   2.4248   2.4249
     2.4305   2.4358   2.4615   2.4737   2.4769   2.4832   2.4834   2.5008
     2.5051   2.5054   2.5218   2.5254   2.5255   2.5265   2.5347   2.5381
     2.5628   2.5729   2.6101   2.6137   2.6196   2.6476   2.6484   2.6564
     2.6596   2.6600   2.6608   2.6639   2.6843   2.6845   2.6873   2.6995
     2.7016   2.7044   2.7076   2.7098   2.7350   2.7529   2.7530   2.7575
     2.7670   2.7671   2.7884   2.7890   2.7951   2.7961   2.8395   2.8403
     2.8403   2.8508   2.8508   2.8532   2.8642   2.8651   2.8732   2.8754
     2.8755   2.8764   2.8835   2.8836   2.8848   2.8911   2.8994   2.8994
     2.9169   2.9297   2.9298   2.9305   2.9319   2.9378   2.9393   2.9394
     2.9614   2.9706   2.9762   2.9815   2.9817   2.9864   2.9992   2.9995
     3.0746   3.0888   3.1269   3.2243   3.2470   3.2471   3.3203   3.4076
     3.4077   3.6613   3.7142   3.7146   3.7179   3.7255   4.0268   4.2113
     4.4036   4.6893   4.6898   4.8949   4.9876   4.9954   5.0386   5.7736
     5.7737   5.9882   6.1470   6.1535   6.1727   6.1730   6.4254   6.6753
     6.7113   6.8537   6.8575   7.2713   7.4142   7.4417   7.4740   7.6731
     7.7076   7.7160   7.9023   7.9539   8.1673   8.1715   8.2594   8.3171
     8.3611   8.6418   8.6429   8.7632   8.8058   8.9125   9.1928   9.1939
     9.2999   9.3600   9.5572   9.5894   9.7558   9.7965   9.9110   9.9383
     9.9490   9.9636  10.0004  10.0573  10.2591  10.3434  10.3439  10.4659
    10.4950  10.5088  10.5946  10.5969  10.6826  10.7265  10.7285  10.7973
    10.8809  10.8912  10.9059  11.0912  11.1038  11.2044  11.4004  11.4252
    11.4365  11.4760  11.4887  11.5673  11.6565  11.7509  11.8982  11.9917
    12.0292  12.1343  12.1877  12.2747  12.2926  12.3906  12.4785  12.5121
    12.5203  12.5615  12.5742  12.6551  12.7945  12.7951  12.8332  12.8586
    12.9426  12.9693  13.0851  13.1044  13.1518  13.1826  13.1876  13.2854
    13.3907  13.4621

          k = 0.2500 0.1443 0.0000 ( 61417 PWs)   bands (ev):

  -107.8831-107.8795-107.8783-107.8778-107.8774-107.8761-107.8758-107.8753
  -107.8749-107.8741-107.8740-107.8734-107.8734-107.8731-107.8728-107.8722
  -107.8720-107.8718-107.8694-107.8690-107.8680-107.8679-107.8666-107.8665
  -107.8660-107.8649-107.8649-107.8625-107.8598-107.8588-107.8588-107.8575
  -107.8574-107.8569-107.8561-107.8558-107.6423-107.6395-107.6386-107.6380
  -107.6367-107.6366-107.6348-107.6329-107.6328-107.6238-107.6208-107.6198
  -107.6198-107.6183-107.6183-107.6179-107.6168-107.6168 -65.3366 -65.3274
   -65.3269 -65.3257 -65.3246 -65.3245 -65.3241 -65.3239 -65.3208 -65.3208
   -65.3200 -65.3200 -65.3182 -65.3181 -65.3135 -65.3121 -65.3121 -65.3100
   -65.3095 -65.3084 -65.3083 -65.3082 -65.3081 -65.3079 -65.3058 -65.3057
   -65.3054 -65.3052 -65.3011 -65.3011 -65.2980 -65.2979 -65.2978 -65.2966
   -65.2965 -65.2959 -65.2952 -65.2952 -65.2931 -65.2931 -65.2907 -65.2906
   -65.2873 -65.2871 -65.2870 -65.2866 -65.2858 -65.2857 -65.2850 -65.2839
   -65.2837 -65.2826 -65.2824 -65.2811 -65.2809 -65.2808 -65.2800 -65.2793
   -65.2792 -65.2773 -65.2771 -65.2770 -65.2769 -65.2767 -65.2766 -65.2742
   -65.2741 -65.2719 -65.2719 -65.2712 -65.2712 -65.2696 -65.2695 -65.2692
   -65.2687 -65.2685 -65.2685 -65.2682 -65.2680 -65.2679 -65.2679 -65.2662
   -65.2662 -65.2644 -65.2643 -65.2639 -65.2632 -65.2626 -65.2623 -65.2621
   -65.2620 -65.2615 -65.2608 -65.2586 -65.2585 -65.2569 -65.2553 -65.2553
   -65.2553 -65.2543 -65.2540 -65.2517 -65.2517 -65.2509 -65.2484 -65.2478
   -65.2447 -65.2416 -65.1060 -65.1006 -65.1006 -65.0990 -65.0987 -65.0899
   -65.0872 -65.0871 -65.0844 -65.0843 -65.0832 -65.0831 -65.0815 -65.0814
   -65.0784 -65.0713 -65.0712 -65.0655 -65.0655 -65.0635 -65.0630 -65.0626
   -65.0618 -65.0589 -65.0588 -65.0549 -65.0509 -65.0478 -65.0471 -65.0471
   -65.0460 -65.0431 -65.0430 -65.0390 -65.0352 -65.0320 -65.0175 -65.0150
   -65.0142 -65.0137 -65.0124 -65.0123 -65.0100 -65.0082 -65.0081 -64.9959
   -64.9931 -64.9921 -64.9921 -64.9908 -64.9907 -64.9904 -64.9893 -64.9893
   -12.5232  -9.7861  -9.7834  -6.1987  -6.1905  -4.2468  -3.9348  -3.3183
    -2.6548  -2.3751  -2.3317  -2.2829  -1.7836  -1.6822  -1.6420  -1.6207
    -1.6199  -1.2590  -1.1366  -1.1361  -0.9817  -0.5647  -0.5646  -0.4862
    -0.4727  -0.4519  -0.3534  -0.3326  -0.2782  -0.2777  -0.1431  -0.1100
    -0.1054  -0.0076  -0.0031  -0.0029   0.1732   0.1742   0.2032   0.2604
     0.2683   0.2691   0.3007   0.4529   0.4576   0.4875   0.4875   0.5140
     0.5235   0.5235   0.5476   0.5476   0.5944   0.5953   0.5969   0.5973
     0.6098   0.6099   0.6498   0.6498   0.6867   0.6867   0.7150   0.7151
     0.7236   0.7659   0.7662   0.7807   0.7807   0.8031   0.8033   0.8160
     0.8160   0.8500   0.8501   0.8905   0.9592   0.9592   0.9658   0.9895
     0.9895   1.0039   1.0041   1.0401   1.0401   1.0744   1.0771   1.0771
     1.1394   1.1394   1.1656   1.1664   1.1869   1.1870   1.2320   1.2321
     1.2489   1.2690   1.2756   1.2758   1.3039   1.3440   1.3442   1.3638
     1.3639   1.3705   1.4076   1.4088   1.4190   1.4439   1.4439   1.4509
     1.4837   1.4839   1.5128   1.5496   1.5618   1.5722   1.5722   1.5850
     1.5852   1.5854   1.6232   1.6243   1.6293   1.6418   1.6419   1.6573
     1.6625   1.6626   1.6792   1.6825   1.6928   1.7002   1.7122   1.7208
     1.7209   1.7306   1.7357   1.7361   1.7376   1.7550   1.7555   1.7588
     1.7588   1.7629   1.7831   1.7857   1.7963   1.8077   1.8087   1.8177
     1.8192   1.8321   1.8326   1.8681   1.8682   1.8778   1.8781   1.8790
     1.8935   1.9023   1.9023   1.9035   1.9123   1.9134   1.9189   1.9338
     1.9695   1.9761   1.9815   1.9816   1.9886   1.9888   1.9999   2.0132
     2.0153   2.0164   2.0196   2.0420   2.0421   2.0558   2.0896   2.0930
     2.1228   2.1237   2.1336   2.1342   2.1402   2.1402   2.2030   2.2188
     2.2418   2.2450   2.2508   2.2522   2.2653   2.2657   2.2701   2.2900
     2.2946   2.3054   2.3079   2.3145   2.3211   2.3262   2.3543   2.3560
     2.3766   2.3839   2.3850   2.3891   2.3937   2.4193   2.4248   2.4249
     2.4305   2.4358   2.4615   2.4737   2.4769   2.4832   2.4834   2.5008
     2.5051   2.5054   2.5218   2.5254   2.5255   2.5265   2.5347   2.5381
     2.5628   2.5729   2.6101   2.6137   2.6196   2.6476   2.6484   2.6564
     2.6597   2.6600   2.6608   2.6639   2.6843   2.6845   2.6873   2.6995
     2.7016   2.7044   2.7076   2.7098   2.7350   2.7529   2.7530   2.7575
     2.7670   2.7671   2.7884   2.7890   2.7951   2.7961   2.8395   2.8403
     2.8403   2.8508   2.8508   2.8532   2.8642   2.8651   2.8732   2.8754
     2.8755   2.8764   2.8835   2.8836   2.8848   2.8911   2.8994   2.8994
     2.9169   2.9297   2.9298   2.9305   2.9319   2.9378   2.9393   2.9394
     2.9614   2.9706   2.9763   2.9815   2.9817   2.9864   2.9992   2.9995
     3.0746   3.0888   3.1269   3.2243   3.2470   3.2471   3.3203   3.4076
     3.4077   3.6613   3.7142   3.7146   3.7179   3.7255   4.0268   4.2113
     4.4036   4.6893   4.6898   4.8949   4.9876   4.9954   5.0386   5.7736
     5.7737   5.9882   6.1470   6.1535   6.1727   6.1730   6.4254   6.6753
     6.7113   6.8537   6.8575   7.2713   7.4141   7.4417   7.4740   7.6731
     7.7076   7.7160   7.9023   7.9539   8.1673   8.1715   8.2594   8.3171
     8.3611   8.6418   8.6429   8.7632   8.8058   8.9125   9.1928   9.1939
     9.2999   9.3600   9.5572   9.5894   9.7558   9.7965   9.9110   9.9383
     9.9490   9.9636  10.0004  10.0573  10.2591  10.3434  10.3439  10.4659
    10.4950  10.5088  10.5946  10.5969  10.6826  10.7265  10.7285  10.7973
    10.8809  10.8912  10.9059  11.0912  11.1038  11.2044  11.4004  11.4252
    11.4365  11.4760  11.4887  11.5673  11.6565  11.7509  11.8982  11.9917
    12.0292  12.1343  12.1877  12.2747  12.2926  12.3906  12.4785  12.5121
    12.5203  12.5615  12.5742  12.6551  12.7945  12.7951  12.8332  12.8586
    12.9426  12.9693  13.0851  13.1043  13.1518  13.1826  13.1876  13.2854
    13.3907  13.4621

          k = 0.5000-0.2887 0.0000 ( 61408 PWs)   bands (ev):

  -107.8818-107.8812-107.8784-107.8781-107.8770-107.8761-107.8752-107.8747
  -107.8744-107.8744-107.8742-107.8741-107.8739-107.8730-107.8724-107.8722
  -107.8720-107.8708-107.8704-107.8694-107.8682-107.8681-107.8660-107.8660
  -107.8658-107.8652-107.8651-107.8616-107.8611-107.8590-107.8590-107.8571
  -107.8567-107.8567-107.8566-107.8559-107.6416-107.6405-107.6387-107.6381
  -107.6365-107.6364-107.6348-107.6330-107.6328-107.6226-107.6225-107.6200
  -107.6200-107.6175-107.6175-107.6174-107.6174-107.6174 -65.3328 -65.3324
   -65.3300 -65.3286 -65.3247 -65.3247 -65.3235 -65.3234 -65.3229 -65.3228
   -65.3218 -65.3217 -65.3216 -65.3212 -65.3176 -65.3111 -65.3107 -65.3106
   -65.3101 -65.3101 -65.3099 -65.3098 -65.3090 -65.3088 -65.3064 -65.3064
   -65.3061 -65.3059 -65.2989 -65.2988 -65.2977 -65.2975 -65.2973 -65.2970
   -65.2956 -65.2920 -65.2919 -65.2890 -65.2883 -65.2882 -65.2882 -65.2879
   -65.2878 -65.2871 -65.2852 -65.2851 -65.2847 -65.2845 -65.2843 -65.2841
   -65.2812 -65.2812 -65.2811 -65.2803 -65.2802 -65.2800 -65.2798 -65.2784
   -65.2753 -65.2751 -65.2747 -65.2746 -65.2745 -65.2739 -65.2738 -65.2738
   -65.2737 -65.2736 -65.2735 -65.2730 -65.2706 -65.2706 -65.2702 -65.2701
   -65.2697 -65.2693 -65.2676 -65.2674 -65.2666 -65.2664 -65.2664 -65.2662
   -65.2652 -65.2649 -65.2648 -65.2641 -65.2633 -65.2631 -65.2631 -65.2626
   -65.2625 -65.2622 -65.2622 -65.2592 -65.2591 -65.2590 -65.2589 -65.2576
   -65.2570 -65.2554 -65.2551 -65.2550 -65.2531 -65.2530 -65.2514 -65.2511
   -65.2444 -65.2440 -65.1101 -65.1028 -65.1028 -65.1016 -65.1013 -65.0941
   -65.0863 -65.0862 -65.0862 -65.0862 -65.0836 -65.0834 -65.0719 -65.0717
   -65.0706 -65.0704 -65.0676 -65.0675 -65.0635 -65.0630 -65.0623 -65.0598
   -65.0592 -65.0552 -65.0552 -65.0552 -65.0551 -65.0515 -65.0501 -65.0471
   -65.0468 -65.0468 -65.0441 -65.0440 -65.0350 -65.0349 -65.0170 -65.0158
   -65.0143 -65.0137 -65.0122 -65.0121 -65.0100 -65.0082 -65.0080 -64.9948
   -64.9947 -64.9923 -64.9923 -64.9900 -64.9900 -64.9899 -64.9899 -64.9899
   -12.5224  -9.7896  -9.7842  -6.2021  -6.1858  -4.2199  -3.3092  -3.3090
    -2.7102  -2.7100  -2.6270  -2.2867  -1.8056  -1.8015  -1.7766  -1.7765
    -1.7254  -1.6482  -1.2664  -1.2658  -0.7531  -0.7377  -0.5482  -0.5435
    -0.3712  -0.1640   0.0198   0.0216   0.0341   0.0400   0.0401   0.0403
     0.0403   0.1278   0.1965   0.2009   0.2092   0.2124   0.2193   0.2260
     0.2381   0.2381   0.2382   0.2382   0.2930   0.2941   0.2942   0.2943
     0.3013   0.4210   0.4588   0.4589   0.4592   0.4593   0.4990   0.5408
     0.6361   0.6362   0.6363   0.6363   0.6509   0.6733   0.6742   0.6904
     0.6904   0.6906   0.6906   0.8102   0.8102   0.8103   0.8104   0.8329
     0.8332   0.9218   0.9343   0.9343   0.9344   0.9344   0.9703   0.9704
     1.0149   1.0149   1.0862   1.0863   1.0863   1.0864   1.1468   1.1469
     1.1762   1.1765   1.1971   1.1972   1.1976   1.1977   1.2147   1.2147
     1.2507   1.2525   1.3030   1.3154   1.3158   1.3437   1.3441   1.3641
     1.3652   1.3730   1.3730   1.3733   1.3733   1.4299   1.4305   1.4348
     1.4349   1.4352   1.4353   1.4860   1.4880   1.5095   1.5095   1.5097
     1.5098   1.5193   1.5208   1.5208   1.5783   1.5821   1.6047   1.6061
     1.6066   1.6209   1.6240   1.6570   1.6576   1.6577   1.6579   1.6579
     1.6709   1.6732   1.7210   1.7212   1.7311   1.7314   1.7440   1.7441
     1.7785   1.7788   1.7788   1.7789   1.8015   1.8021   1.8029   1.8030
     1.8033   1.8320   1.8322   1.8327   1.8330   1.8641   1.8644   1.8846
     1.8940   1.8942   1.9556   1.9565   1.9626   1.9629   1.9659   1.9661
     1.9674   1.9674   1.9756   1.9767   1.9831   1.9832   1.9919   2.0090
     2.0104   2.0175   2.0179   2.0186   2.0189   2.0838   2.0899   2.0984
     2.0984   2.1492   2.1737   2.1800   2.1808   2.1810   2.1858   2.1887
     2.1890   2.1898   2.1948   2.1952   2.2183   2.2214   2.2221   2.2584
     2.2604   2.2605   2.2622   2.2802   2.2804   2.2804   2.2805   2.2836
     2.2852   2.3063   2.3065   2.3128   2.3139   2.3274   2.3393   2.3911
     2.4310   2.4365   2.4366   2.4643   2.4644   2.4650   2.4656   2.4966
     2.4973   2.5008   2.5136   2.5363   2.5371   2.5402   2.5403   2.5502
     2.5636   2.5720   2.5770   2.5771   2.5772   2.5774   2.5900   2.6108
     2.6109   2.6122   2.6139   2.6666   2.6667   2.6671   2.6674   2.6776
     2.6784   2.7036   2.7039   2.7334   2.7336   2.7371   2.7379   2.7645
     2.7645   2.7895   2.7922   2.7957   2.8133   2.8530   2.8546   2.8650
     2.8659   2.8746   2.8749   2.8891   2.9025   2.9027   2.9069   2.9071
     2.9085   2.9091   2.9246   2.9293   2.9293   2.9296   2.9297   2.9468
     2.9479   2.9481   2.9542   2.9583   2.9736   2.9764   2.9959   2.9960
     2.9964   2.9973   3.0038   3.0111   3.0330   3.0463   3.0464   3.0471
     3.0472   3.1541   3.1680   3.6857   3.6974   3.6999   3.7045   4.2141
     4.2580   4.2580   4.2582   4.2583   4.5285   4.5288   4.5293   4.5294
     4.8777   4.8818   4.8943   4.9988   5.0217   5.0850   5.0870   5.0880
     5.0892   5.3731   5.7123   5.9663   5.9905   5.9948   6.0618   6.0700
     6.0716   6.0751   6.1295   6.5334   6.5736   7.2690   7.3546   7.3809
     7.3814   7.4099   7.5973   7.9554   7.9823   8.1030   8.2397   8.3818
     8.5034   8.5053   8.5066   8.5206   8.8709   8.8964   8.9092   9.1524
     9.1547   9.1549   9.1621   9.2631   9.4626   9.5788   9.6864   9.7705
     9.7785   9.8129   9.8270   9.8550   9.8856  10.2490  10.3285  10.3386
    10.3799  10.4227  10.4527  10.4573  10.4736  10.8063  10.8728  11.0227
    11.1113  11.1904  11.2414  11.2505  11.3075  11.3734  11.3900  11.3953
    11.4675  11.5366  11.6892  12.0265  12.0942  12.1391  12.1678  12.2160
    12.2357  12.2880  12.4439  12.4928  12.7269  12.8118  12.8542  12.9379
    12.9498  12.9929  13.0188  13.0392  13.0572  13.1812  13.1856  13.1996
    13.2044  13.2602  13.2951  13.3316  13.4279  13.5893  13.6321  13.6332
    13.6896  13.7823

          k =-0.5000-0.2887 0.0000 ( 61408 PWs)   bands (ev):

  -107.8818-107.8812-107.8784-107.8781-107.8770-107.8761-107.8752-107.8747
  -107.8744-107.8744-107.8742-107.8741-107.8739-107.8730-107.8724-107.8722
  -107.8720-107.8708-107.8704-107.8694-107.8682-107.8681-107.8660-107.8660
  -107.8658-107.8652-107.8651-107.8616-107.8611-107.8590-107.8590-107.8571
  -107.8567-107.8567-107.8566-107.8559-107.6416-107.6405-107.6387-107.6381
  -107.6365-107.6364-107.6348-107.6330-107.6328-107.6226-107.6225-107.6200
  -107.6200-107.6175-107.6175-107.6174-107.6174-107.6174 -65.3328 -65.3324
   -65.3300 -65.3286 -65.3247 -65.3247 -65.3235 -65.3234 -65.3229 -65.3228
   -65.3218 -65.3217 -65.3216 -65.3212 -65.3176 -65.3111 -65.3107 -65.3106
   -65.3101 -65.3101 -65.3099 -65.3098 -65.3090 -65.3088 -65.3064 -65.3064
   -65.3061 -65.3059 -65.2989 -65.2988 -65.2977 -65.2975 -65.2973 -65.2970
   -65.2956 -65.2920 -65.2919 -65.2890 -65.2883 -65.2882 -65.2882 -65.2879
   -65.2878 -65.2871 -65.2852 -65.2851 -65.2847 -65.2845 -65.2843 -65.2841
   -65.2812 -65.2812 -65.2811 -65.2803 -65.2802 -65.2800 -65.2798 -65.2784
   -65.2753 -65.2751 -65.2747 -65.2746 -65.2745 -65.2739 -65.2738 -65.2738
   -65.2737 -65.2736 -65.2735 -65.2730 -65.2706 -65.2706 -65.2702 -65.2701
   -65.2697 -65.2693 -65.2676 -65.2674 -65.2666 -65.2664 -65.2664 -65.2662
   -65.2652 -65.2649 -65.2648 -65.2641 -65.2633 -65.2631 -65.2631 -65.2626
   -65.2625 -65.2622 -65.2622 -65.2592 -65.2591 -65.2590 -65.2589 -65.2576
   -65.2570 -65.2554 -65.2551 -65.2550 -65.2531 -65.2530 -65.2514 -65.2511
   -65.2444 -65.2440 -65.1101 -65.1028 -65.1028 -65.1016 -65.1013 -65.0941
   -65.0863 -65.0862 -65.0862 -65.0862 -65.0836 -65.0834 -65.0719 -65.0717
   -65.0706 -65.0704 -65.0676 -65.0675 -65.0635 -65.0630 -65.0623 -65.0598
   -65.0592 -65.0552 -65.0552 -65.0552 -65.0551 -65.0515 -65.0501 -65.0471
   -65.0468 -65.0468 -65.0441 -65.0440 -65.0350 -65.0349 -65.0170 -65.0158
   -65.0143 -65.0137 -65.0122 -65.0121 -65.0100 -65.0082 -65.0080 -64.9948
   -64.9947 -64.9923 -64.9923 -64.9900 -64.9900 -64.9899 -64.9899 -64.9899
   -12.5224  -9.7896  -9.7842  -6.2020  -6.1859  -4.2199  -3.3092  -3.3090
    -2.7102  -2.7100  -2.6270  -2.2867  -1.8056  -1.8015  -1.7766  -1.7765
    -1.7255  -1.6481  -1.2664  -1.2658  -0.7531  -0.7377  -0.5482  -0.5435
    -0.3712  -0.1640   0.0198   0.0216   0.0341   0.0400   0.0401   0.0403
     0.0403   0.1278   0.1965   0.2009   0.2092   0.2124   0.2193   0.2259
     0.2381   0.2381   0.2382   0.2382   0.2931   0.2941   0.2942   0.2943
     0.3014   0.4210   0.4588   0.4589   0.4592   0.4593   0.4990   0.5408
     0.6361   0.6362   0.6363   0.6363   0.6509   0.6733   0.6742   0.6904
     0.6904   0.6906   0.6906   0.8102   0.8102   0.8103   0.8104   0.8329
     0.8332   0.9218   0.9343   0.9343   0.9344   0.9344   0.9703   0.9704
     1.0149   1.0149   1.0862   1.0863   1.0863   1.0864   1.1468   1.1469
     1.1762   1.1765   1.1971   1.1972   1.1976   1.1977   1.2147   1.2147
     1.2507   1.2525   1.3030   1.3154   1.3158   1.3437   1.3441   1.3641
     1.3652   1.3730   1.3730   1.3733   1.3733   1.4299   1.4305   1.4348
     1.4349   1.4352   1.4353   1.4860   1.4880   1.5094   1.5095   1.5097
     1.5098   1.5193   1.5208   1.5208   1.5783   1.5821   1.6047   1.6061
     1.6066   1.6209   1.6240   1.6570   1.6576   1.6577   1.6579   1.6579
     1.6709   1.6732   1.7210   1.7212   1.7311   1.7314   1.7440   1.7441
     1.7785   1.7788   1.7788   1.7789   1.8015   1.8021   1.8029   1.8030
     1.8033   1.8320   1.8322   1.8327   1.8330   1.8641   1.8644   1.8846
     1.8940   1.8942   1.9556   1.9565   1.9626   1.9629   1.9659   1.9661
     1.9674   1.9674   1.9756   1.9767   1.9831   1.9832   1.9919   2.0090
     2.0104   2.0175   2.0179   2.0186   2.0189   2.0838   2.0899   2.0984
     2.0984   2.1492   2.1737   2.1800   2.1808   2.1810   2.1858   2.1887
     2.1890   2.1898   2.1948   2.1952   2.2183   2.2214   2.2221   2.2584
     2.2604   2.2605   2.2622   2.2802   2.2804   2.2804   2.2805   2.2836
     2.2852   2.3063   2.3065   2.3128   2.3139   2.3274   2.3393   2.3911
     2.4310   2.4365   2.4366   2.4643   2.4644   2.4650   2.4656   2.4966
     2.4973   2.5008   2.5136   2.5363   2.5371   2.5402   2.5403   2.5502
     2.5636   2.5720   2.5770   2.5771   2.5772   2.5774   2.5900   2.6108
     2.6109   2.6122   2.6139   2.6666   2.6667   2.6671   2.6674   2.6776
     2.6784   2.7036   2.7039   2.7334   2.7336   2.7371   2.7379   2.7645
     2.7645   2.7895   2.7922   2.7957   2.8133   2.8530   2.8546   2.8650
     2.8659   2.8746   2.8749   2.8891   2.9025   2.9027   2.9069   2.9071
     2.9085   2.9091   2.9246   2.9293   2.9293   2.9296   2.9297   2.9468
     2.9479   2.9481   2.9542   2.9583   2.9736   2.9764   2.9959   2.9960
     2.9964   2.9973   3.0038   3.0111   3.0330   3.0463   3.0464   3.0471
     3.0472   3.1541   3.1680   3.6857   3.6974   3.6999   3.7045   4.2141
     4.2580   4.2580   4.2582   4.2583   4.5285   4.5288   4.5293   4.5294
     4.8777   4.8818   4.8943   4.9988   5.0217   5.0850   5.0870   5.0880
     5.0892   5.3731   5.7123   5.9663   5.9905   5.9948   6.0618   6.0700
     6.0716   6.0751   6.1295   6.5334   6.5736   7.2690   7.3546   7.3809
     7.3814   7.4099   7.5973   7.9554   7.9823   8.1030   8.2397   8.3819
     8.5034   8.5053   8.5066   8.5206   8.8709   8.8964   8.9092   9.1524
     9.1547   9.1549   9.1621   9.2631   9.4626   9.5788   9.6864   9.7705
     9.7785   9.8129   9.8270   9.8549   9.8856  10.2490  10.3285  10.3386
    10.3799  10.4227  10.4527  10.4573  10.4736  10.8063  10.8728  11.0227
    11.1113  11.1904  11.2414  11.2505  11.3075  11.3734  11.3900  11.3953
    11.4675  11.5366  11.6892  12.0265  12.0942  12.1391  12.1678  12.2160
    12.2357  12.2880  12.4439  12.4928  12.7268  12.8119  12.8542  12.9378
    12.9498  12.9929  13.0188  13.0392  13.0572  13.1812  13.1857  13.1996
    13.2044  13.2602  13.2951  13.3316  13.4279  13.5893  13.6321  13.6332
    13.6897  13.7823

          k =-0.2500-0.7217 0.0000 ( 61343 PWs)   bands (ev):

  -107.8821-107.8804-107.8797-107.8775-107.8762-107.8761-107.8758-107.8751
  -107.8748-107.8743-107.8742-107.8738-107.8736-107.8729-107.8726-107.8722
  -107.8720-107.8710-107.8698-107.8694-107.8693-107.8670-107.8665-107.8659
  -107.8658-107.8652-107.8650-107.8618-107.8605-107.8601-107.8579-107.8575
  -107.8569-107.8566-107.8564-107.8559-107.6416-107.6402-107.6392-107.6377
  -107.6366-107.6364-107.6348-107.6330-107.6328-107.6230-107.6215-107.6214
  -107.6186-107.6185-107.6175-107.6174-107.6174-107.6170 -65.3339 -65.3294
   -65.3289 -65.3281 -65.3278 -65.3268 -65.3265 -65.3251 -65.3234 -65.3219
   -65.3216 -65.3205 -65.3177 -65.3159 -65.3155 -65.3154 -65.3152 -65.3127
   -65.3097 -65.3091 -65.3090 -65.3088 -65.3086 -65.3071 -65.3069 -65.3060
   -65.3052 -65.3050 -65.3023 -65.3019 -65.2970 -65.2967 -65.2962 -65.2955
   -65.2930 -65.2929 -65.2921 -65.2919 -65.2916 -65.2887 -65.2882 -65.2879
   -65.2870 -65.2863 -65.2859 -65.2858 -65.2848 -65.2820 -65.2818 -65.2817
   -65.2815 -65.2814 -65.2812 -65.2800 -65.2798 -65.2795 -65.2792 -65.2778
   -65.2776 -65.2763 -65.2761 -65.2758 -65.2756 -65.2752 -65.2735 -65.2724
   -65.2722 -65.2721 -65.2719 -65.2715 -65.2711 -65.2706 -65.2704 -65.2702
   -65.2701 -65.2688 -65.2687 -65.2679 -65.2674 -65.2672 -65.2668 -65.2654
   -65.2651 -65.2644 -65.2643 -65.2643 -65.2641 -65.2641 -65.2639 -65.2638
   -65.2619 -65.2617 -65.2613 -65.2594 -65.2592 -65.2584 -65.2583 -65.2582
   -65.2574 -65.2573 -65.2551 -65.2541 -65.2540 -65.2532 -65.2495 -65.2476
   -65.2475 -65.2438 -65.1082 -65.1075 -65.1050 -65.0983 -65.0949 -65.0939
   -65.0919 -65.0918 -65.0890 -65.0825 -65.0785 -65.0785 -65.0751 -65.0733
   -65.0720 -65.0717 -65.0669 -65.0660 -65.0654 -65.0648 -65.0590 -65.0588
   -65.0569 -65.0561 -65.0561 -65.0542 -65.0540 -65.0503 -65.0503 -65.0500
   -65.0495 -65.0494 -65.0429 -65.0383 -65.0383 -65.0342 -65.0170 -65.0156
   -65.0147 -65.0134 -65.0122 -65.0121 -65.0100 -65.0082 -65.0080 -64.9951
   -64.9938 -64.9937 -64.9910 -64.9909 -64.9900 -64.9900 -64.9899 -64.9896
   -12.5224  -9.7883  -9.7855  -6.1978  -6.1901  -4.2201  -3.5147  -2.9090
    -2.7086  -2.7084  -2.6268  -2.2865  -2.1344  -2.1342  -1.9868  -1.7106
    -1.6699  -1.2769  -1.2747  -0.9056  -0.6978  -0.6977  -0.4146  -0.3471
    -0.3462  -0.3032  -0.2735  -0.1069  -0.1068  -0.0974   0.0680   0.0686
     0.0877   0.0878   0.1041   0.1538   0.1660   0.1661   0.1832   0.2395
     0.2798   0.2819   0.2858   0.2888   0.2890   0.3625   0.3658   0.4269
     0.4272   0.4390   0.4498   0.4773   0.4774   0.4802   0.4988   0.4996
     0.5672   0.5673   0.5924   0.5943   0.6245   0.6246   0.6495   0.6588
     0.6589   0.7274   0.7274   0.7540   0.7763   0.7869   0.7870   0.8625
     0.8629   0.9137   0.9331   0.9333   0.9626   0.9627   1.0199   1.0291
     1.0293   1.0446   1.0446   1.0592   1.0973   1.1249   1.1249   1.1672
     1.1675   1.1946   1.2000   1.2004   1.2016   1.2179   1.2181   1.2777
     1.2779   1.2808   1.2808   1.2838   1.2964   1.3132   1.3143   1.3275
     1.3280   1.3554   1.3564   1.3792   1.3811   1.3817   1.4008   1.4249
     1.4658   1.4739   1.4741   1.4745   1.4753   1.5042   1.5232   1.5272
     1.5279   1.5648   1.5649   1.5659   1.5687   1.5748   1.5979   1.6192
     1.6193   1.6363   1.6364   1.6628   1.6640   1.6732   1.6733   1.6860
     1.6866   1.7008   1.7009   1.7184   1.7187   1.7333   1.7420   1.7658
     1.7782   1.7807   1.7843   1.8020   1.8044   1.8049   1.8117   1.8200
     1.8206   1.8298   1.8299   1.8439   1.8481   1.8492   1.8495   1.8543
     1.8717   1.8770   1.9002   1.9167   1.9183   1.9259   1.9290   1.9298
     1.9366   1.9375   1.9377   1.9407   1.9458   1.9511   1.9524   1.9533
     2.0125   2.0135   2.0743   2.0750   2.0839   2.0874   2.0878   2.0923
     2.1157   2.1159   2.1308   2.1333   2.1397   2.1591   2.1722   2.1729
     2.1993   2.2007   2.2185   2.2420   2.2447   2.2516   2.2523   2.2560
     2.2568   2.2580   2.2632   2.2652   2.2724   2.2735   2.2986   2.3185
     2.3396   2.3421   2.3435   2.3473   2.3560   2.3582   2.3612   2.3857
     2.3913   2.3985   2.4100   2.4352   2.4375   2.4532   2.4597   2.4612
     2.4709   2.4735   2.5044   2.5129   2.5183   2.5188   2.5453   2.5457
     2.5673   2.5738   2.5744   2.5926   2.5936   2.6162   2.6166   2.6175
     2.6210   2.6237   2.6369   2.6371   2.6417   2.6479   2.6507   2.6681
     2.7057   2.7125   2.7127   2.7153   2.7632   2.7635   2.7735   2.7751
     2.8059   2.8187   2.8191   2.8248   2.8251   2.8398   2.8426   2.8693
     2.8699   2.8701   2.8797   2.8798   2.8913   2.8931   2.8943   2.8945
     2.8963   2.9038   2.9040   2.9047   2.9072   2.9218   2.9223   2.9374
     2.9380   2.9429   2.9484   2.9485   2.9599   2.9759   2.9806   2.9867
     2.9870   3.0042   3.0357   3.0359   3.0464   3.0678   3.0681   3.2219
     3.2261   3.3356   3.3356   3.4377   3.4380   3.5400   3.7626   3.7646
     4.1414   4.1521   4.2464   4.2467   4.2597   4.5224   4.6327   4.6379
     4.6546   4.6547   4.7779   5.1005   5.1281   5.1290   5.5722   5.6127
     5.6316   5.6751   5.8649   5.8845   5.8862   6.0164   6.0222   6.1075
     6.1796   6.5523   6.6308   6.6326   6.8063   6.8669   6.9531   7.0089
     7.0096   7.3026   7.3901   7.4085   7.5617   7.7685   7.8344   7.9282
     8.4276   8.4306   8.4654   8.5341   8.7154   9.0453   9.0913   9.1239
     9.1985   9.2837   9.3261   9.4378   9.4464   9.6089   9.6453   9.6530
     9.7747   9.8264  10.0094  10.1145  10.1392  10.3229  10.3831  10.4647
    10.4937  10.5670  10.6461  10.7661  10.8010  11.0292  11.1317  11.1412
    11.2459  11.2812  11.4040  11.4357  11.4410  11.5849  11.6205  11.6660
    11.6801  11.7635  11.8077  11.8367  11.9751  12.0726  12.1082  12.1762
    12.2614  12.3321  12.3572  12.3881  12.4506  12.4673  12.5334  12.5870
    12.6831  12.7042  12.7910  12.9009  12.9402  12.9501  13.1391  13.2327
    13.2610  13.2825  13.3590  13.3850  13.4558  13.4814  13.5288  13.6138
    13.6457  13.6600

          k =-0.5000-0.5774 0.0000 ( 61343 PWs)   bands (ev):

  -107.8821-107.8804-107.8797-107.8775-107.8762-107.8761-107.8758-107.8751
  -107.8748-107.8743-107.8742-107.8738-107.8736-107.8728-107.8726-107.8722
  -107.8720-107.8710-107.8698-107.8694-107.8693-107.8670-107.8665-107.8659
  -107.8658-107.8652-107.8650-107.8618-107.8605-107.8601-107.8579-107.8575
  -107.8569-107.8566-107.8564-107.8559-107.6416-107.6402-107.6392-107.6377
  -107.6366-107.6364-107.6348-107.6330-107.6328-107.6230-107.6215-107.6214
  -107.6186-107.6185-107.6175-107.6174-107.6174-107.6170 -65.3339 -65.3294
   -65.3289 -65.3281 -65.3278 -65.3268 -65.3265 -65.3251 -65.3234 -65.3219
   -65.3216 -65.3205 -65.3177 -65.3159 -65.3155 -65.3154 -65.3152 -65.3127
   -65.3097 -65.3091 -65.3090 -65.3088 -65.3086 -65.3071 -65.3069 -65.3060
   -65.3052 -65.3050 -65.3023 -65.3019 -65.2970 -65.2967 -65.2962 -65.2955
   -65.2930 -65.2929 -65.2921 -65.2919 -65.2916 -65.2887 -65.2882 -65.2879
   -65.2870 -65.2863 -65.2859 -65.2858 -65.2848 -65.2820 -65.2817 -65.2817
   -65.2815 -65.2814 -65.2812 -65.2800 -65.2798 -65.2795 -65.2792 -65.2778
   -65.2776 -65.2763 -65.2761 -65.2758 -65.2756 -65.2752 -65.2735 -65.2724
   -65.2722 -65.2721 -65.2719 -65.2715 -65.2711 -65.2706 -65.2704 -65.2702
   -65.2701 -65.2688 -65.2687 -65.2679 -65.2674 -65.2672 -65.2668 -65.2654
   -65.2651 -65.2644 -65.2643 -65.2643 -65.2641 -65.2641 -65.2639 -65.2638
   -65.2619 -65.2617 -65.2613 -65.2594 -65.2592 -65.2584 -65.2583 -65.2582
   -65.2574 -65.2573 -65.2551 -65.2541 -65.2540 -65.2532 -65.2495 -65.2476
   -65.2475 -65.2438 -65.1081 -65.1075 -65.1050 -65.0983 -65.0949 -65.0939
   -65.0919 -65.0918 -65.0890 -65.0825 -65.0785 -65.0785 -65.0751 -65.0733
   -65.0720 -65.0717 -65.0669 -65.0660 -65.0654 -65.0648 -65.0590 -65.0588
   -65.0569 -65.0561 -65.0561 -65.0542 -65.0540 -65.0503 -65.0503 -65.0500
   -65.0495 -65.0494 -65.0429 -65.0383 -65.0383 -65.0342 -65.0170 -65.0156
   -65.0147 -65.0134 -65.0123 -65.0121 -65.0100 -65.0082 -65.0080 -64.9951
   -64.9938 -64.9937 -64.9910 -64.9909 -64.9900 -64.9900 -64.9899 -64.9896
   -12.5224  -9.7882  -9.7857  -6.1982  -6.1897  -4.2201  -3.5147  -2.9090
    -2.7086  -2.7084  -2.6268  -2.2864  -2.1344  -2.1342  -1.9868  -1.7106
    -1.6699  -1.2769  -1.2747  -0.9056  -0.6978  -0.6977  -0.4146  -0.3471
    -0.3462  -0.3032  -0.2735  -0.1069  -0.1068  -0.0974   0.0680   0.0686
     0.0877   0.0878   0.1041   0.1538   0.1660   0.1661   0.1832   0.2397
     0.2796   0.2819   0.2857   0.2888   0.2890   0.3625   0.3658   0.4269
     0.4272   0.4390   0.4498   0.4773   0.4774   0.4802   0.4988   0.4996
     0.5672   0.5673   0.5924   0.5943   0.6245   0.6246   0.6495   0.6588
     0.6589   0.7274   0.7274   0.7540   0.7763   0.7869   0.7870   0.8625
     0.8629   0.9137   0.9331   0.9333   0.9626   0.9627   1.0199   1.0291
     1.0293   1.0446   1.0446   1.0592   1.0973   1.1249   1.1249   1.1672
     1.1675   1.1946   1.2000   1.2004   1.2016   1.2179   1.2181   1.2777
     1.2779   1.2808   1.2808   1.2838   1.2964   1.3132   1.3143   1.3275
     1.3280   1.3554   1.3564   1.3792   1.3811   1.3817   1.4008   1.4249
     1.4658   1.4739   1.4741   1.4744   1.4753   1.5042   1.5232   1.5272
     1.5279   1.5648   1.5649   1.5659   1.5687   1.5748   1.5979   1.6192
     1.6193   1.6363   1.6364   1.6628   1.6640   1.6732   1.6733   1.6860
     1.6866   1.7008   1.7009   1.7184   1.7187   1.7333   1.7420   1.7658
     1.7782   1.7807   1.7843   1.8020   1.8044   1.8049   1.8117   1.8201
     1.8206   1.8298   1.8299   1.8439   1.8481   1.8492   1.8495   1.8543
     1.8717   1.8770   1.9002   1.9167   1.9183   1.9259   1.9290   1.9298
     1.9366   1.9375   1.9377   1.9407   1.9458   1.9511   1.9524   1.9533
     2.0125   2.0135   2.0743   2.0750   2.0839   2.0874   2.0878   2.0923
     2.1157   2.1159   2.1308   2.1333   2.1397   2.1591   2.1722   2.1729
     2.1993   2.2007   2.2185   2.2420   2.2447   2.2516   2.2523   2.2560
     2.2568   2.2580   2.2632   2.2652   2.2724   2.2735   2.2986   2.3185
     2.3396   2.3421   2.3435   2.3473   2.3560   2.3582   2.3612   2.3857
     2.3913   2.3986   2.4100   2.4352   2.4374   2.4532   2.4597   2.4612
     2.4709   2.4735   2.5044   2.5129   2.5183   2.5188   2.5452   2.5457
     2.5673   2.5738   2.5744   2.5926   2.5936   2.6162   2.6166   2.6175
     2.6210   2.6237   2.6369   2.6371   2.6417   2.6479   2.6507   2.6681
     2.7057   2.7125   2.7127   2.7153   2.7632   2.7635   2.7735   2.7751
     2.8059   2.8187   2.8191   2.8248   2.8251   2.8398   2.8426   2.8693
     2.8699   2.8701   2.8797   2.8798   2.8913   2.8931   2.8943   2.8945
     2.8963   2.9038   2.9040   2.9047   2.9072   2.9218   2.9223   2.9374
     2.9380   2.9429   2.9484   2.9485   2.9599   2.9759   2.9806   2.9867
     2.9870   3.0042   3.0357   3.0359   3.0464   3.0678   3.0681   3.2219
     3.2261   3.3356   3.3356   3.4377   3.4380   3.5400   3.7626   3.7646
     4.1414   4.1521   4.2464   4.2467   4.2597   4.5224   4.6327   4.6379
     4.6546   4.6547   4.7779   5.1005   5.1281   5.1290   5.5722   5.6127
     5.6316   5.6751   5.8649   5.8845   5.8862   6.0164   6.0222   6.1075
     6.1796   6.5523   6.6308   6.6326   6.8063   6.8669   6.9531   7.0089
     7.0096   7.3026   7.3902   7.4083   7.5617   7.7685   7.8344   7.9282
     8.4276   8.4306   8.4654   8.5341   8.7154   9.0454   9.0913   9.1239
     9.1985   9.2837   9.3260   9.4377   9.4464   9.6089   9.6453   9.6530
     9.7747   9.8264  10.0094  10.1146  10.1392  10.3228  10.3832  10.4647
    10.4937  10.5670  10.6461  10.7661  10.8010  11.0292  11.1318  11.1412
    11.2459  11.2813  11.4040  11.4357  11.4410  11.5849  11.6205  11.6660
    11.6801  11.7635  11.8077  11.8368  11.9750  12.0726  12.1083  12.1762
    12.2615  12.3321  12.3572  12.3881  12.4506  12.4674  12.5334  12.5870
    12.6831  12.7042  12.7909  12.9009  12.9402  12.9501  13.1391  13.2327
    13.2609  13.2823  13.3590  13.3850  13.4558  13.4814  13.5290  13.6138
    13.6457  13.6600

     the Fermi energy is     4.5648 ev

!    total energy              =  -21903.76849586 Ry
     Harris-Foulkes estimate   =  -21903.76849586 Ry
     estimated scf accuracy    <          4.1E-09 Ry

     The total energy is the sum of the following terms:

     one-electron contribution = -206219.03870991 Ry
     hartree contribution      =  103310.62652602 Ry
     xc contribution           =   -2143.16727110 Ry
     ewald contribution        =   83147.86352067 Ry
     smearing contrib. (-TS)   =      -0.05256155 Ry

     convergence has been achieved in  37 iterations
 
     init_run     :    221.06s CPU    225.86s WALL (       1 calls)
     electrons    :  37217.62s CPU  37735.35s WALL (       1 calls)

     Called by init_run:
     wfcinit      :    202.34s CPU    205.90s WALL (       1 calls)
     potinit      :     10.87s CPU     11.36s WALL (       1 calls)
     hinit0       :      2.62s CPU      2.67s WALL (       1 calls)

     Called by electrons:
     c_bands      :  34260.28s CPU  34687.86s WALL (      37 calls)
     sum_band     :   2543.11s CPU   2596.88s WALL (      37 calls)
     v_of_rho     :    345.21s CPU    357.37s WALL (      38 calls)
     newd         :     63.64s CPU     88.46s WALL (      38 calls)
     mix_rho      :     10.95s CPU     11.21s WALL (      37 calls)

     Called by c_bands:
     init_us_2    :     39.50s CPU     40.91s WALL (     750 calls)
     cegterg      :  34112.81s CPU  34527.97s WALL (     370 calls)

     Called by sum_band:
     sum_band:bec :      3.31s CPU      3.33s WALL (     370 calls)
     addusdens    :     55.99s CPU     81.52s WALL (      37 calls)

     Called by *egterg:
     h_psi        :  12596.88s CPU  12757.44s WALL (    1952 calls)
     s_psi        :    636.45s CPU    637.48s WALL (    1952 calls)
     g_psi        :     13.14s CPU     13.19s WALL (    1572 calls)
     cdiaghg      :  16326.37s CPU  16442.31s WALL (    1942 calls)

     Called by h_psi:
     h_psi:pot    :  12582.14s CPU  12719.75s WALL (    1952 calls)
     h_psi:calbec :    892.26s CPU    901.26s WALL (    1952 calls)
     vloc_psi     :  11052.56s CPU  11178.80s WALL (    1952 calls)
     add_vuspsi   :    637.27s CPU    639.67s WALL (    1952 calls)

     General routines
     calbec       :   1172.46s CPU   1182.69s WALL (    2322 calls)
     fft          :    331.10s CPU    333.89s WALL (    2393 calls)
     ffts         :      8.31s CPU      8.35s WALL (      75 calls)
     fftw         :  12567.27s CPU  12711.64s WALL ( 1493542 calls)
     interpolate  :      6.03s CPU      6.07s WALL (      38 calls)
 
     Parallel routines
     fft_scatt_xy :    414.99s CPU    418.39s WALL ( 1496010 calls)
     fft_scatt_yz :  11164.49s CPU  11302.70s WALL ( 1496010 calls)
 
     PWSCF        :    10h23m CPU       23h10m WALL

      32h
 
   This run was terminated on:   3:45:10  16Nov2019            

=------------------------------------------------------------------------------=
   JOB DONE.
=------------------------------------------------------------------------------=
