
     Program PWSCF v.6.3MaX starts on 22Nov2019 at  1:21:12 

     This program is part of the open-source Quantum ESPRESSO suite
     for quantum simulation of materials; please cite
         "P. Giannozzi et al., J. Phys.:Condens. Matter 21 395502 (2009);
         "P. Giannozzi et al., J. Phys.:Condens. Matter 29 465901 (2017);
          URL http://www.quantum-espresso.org", 
     in publications or presentations arising from this work. More details at
     http://www.quantum-espresso.org/quote

     Parallel version (MPI), running on    16 processors

     MPI processes distributed on     2 nodes
     R & G space division:  proc/nbgrp/npool/nimage =      16
     Waiting for input...
     Reading input from standard input

     Current dimensions of program PWSCF are:
     Max number of different atomic species (ntypx) = 10
     Max number of k-points (npk) =  40000
     Max angular momentum in pseudopotentials (lmaxx) =  3
     Message from routine iosys:
     minimal I/O required, wf_collect reset to FALSE

     IMPORTANT: XC functional enforced from input :
     Exchange-correlation      = VDW-DF ( 1  4  4  0 1 0)
     Any further DFT definition will be discarded
     Please, verify this is what you really want


     Subspace diagonalization in iterative solution of the eigenvalue problem:
     one sub-group per band group will be used
     scalapack distributed-memory algorithm (size of sub-group:  2*  2 procs)

 
     Parallelization info
     --------------------
     sticks:   dense  smooth     PW     G-vecs:    dense   smooth      PW
     Min         565     189     51               159513    30701    4383
     Max         566     190     52               159526    30710    4400
     Sum        9055    3037    823              2552337   491295   70261
 


     bravais-lattice index     =            0
     lattice parameter (alat)  =      14.8058  a.u.
     unit-cell volume          =   10282.4791 (a.u.)^3
     number of atoms/cell      =           66
     number of atomic types    =            3
     number of electrons       =      1056.00
     number of Kohn-Sham states=          634
     kinetic-energy cutoff     =      50.0000  Ry
     charge density cutoff     =     600.0000  Ry
     convergence threshold     =      1.0E-08
     mixing beta               =       0.3000
     number of iterations used =            8  plain     mixing
     Exchange-correlation      = VDW-DF ( 1  4  4  0 1 0)

     celldm(1)=  14.805786  celldm(2)=   0.000000  celldm(3)=   0.000000
     celldm(4)=   0.000000  celldm(5)=   0.000000  celldm(6)=   0.000000

     crystal axes: (cart. coord. in units of alat)
               a(1) = (   1.000000   0.000000   0.000000 )  
               a(2) = (   0.500000   0.866025   0.000000 )  
               a(3) = (   0.000000   0.000000   3.658245 )  

     reciprocal axes: (cart. coord. in units 2 pi/alat)
               b(1) = (  1.000000 -0.577350  0.000000 )  
               b(2) = (  0.000000  1.154701  0.000000 )  
               b(3) = (  0.000000  0.000000  0.273355 )  


     PseudoPot. # 1 for Cu read from file:
     /deac/thonhauserGrp/chakrad/calculations/atomandmolecule-qe6.2.1-i2012-C6modif/all_pbe_UPF_v1.5/cu_pbe_v1.2.uspp.F.UPF
     MD5 check sum: 6e991ff952a84172a2a52a1c1e996048
     Pseudo is Ultrasoft + core correction, Zval = 19.0
     Generated by new atomic code, or converted to UPF format
     Using radial grid of  867 points,  6 beta functions with: 
                l(1) =   0
                l(2) =   0
                l(3) =   1
                l(4) =   1
                l(5) =   2
                l(6) =   2
     Q(r) pseudized with  8 coefficients,  rinner =    1.150   1.150   1.150
                                                       1.150   1.150

     PseudoPot. # 2 for C  read from file:
     /deac/thonhauserGrp/chakrad/calculations/atomandmolecule-qe6.2.1-i2012-C6modif/all_pbe_UPF_v1.5/c_pbe_v1.2.uspp.F.UPF
     MD5 check sum: d1aef80898a10debaa0f26306b886e00
     Pseudo is Ultrasoft + core correction, Zval =  4.0
     Generated by new atomic code, or converted to UPF format
     Using radial grid of  721 points,  4 beta functions with: 
                l(1) =   0
                l(2) =   0
                l(3) =   1
                l(4) =   1
     Q(r) pseudized with  8 coefficients,  rinner =    1.100   1.100   1.100


     PseudoPot. # 3 for H  read from file:
     /deac/thonhauserGrp/chakrad/calculations/atomandmolecule-qe6.2.1-i2012-C6modif/all_pbe_UPF_v1.5/h_pbe_v1.4.uspp.F.UPF
     MD5 check sum: 761ae9a214b05c3daf00ab9f6b793d6f
     Pseudo is Ultrasoft, Zval =  1.0
     Generated by new atomic code, or converted to UPF format
     Using radial grid of  615 points,  2 beta functions with: 
                l(1) =   0
                l(2) =   0
     Q(r) pseudized with  8 coefficients,  rinner =    0.700

     vdW kernel table read from file vdW_kernel_table
     MD5 check sum: cc9485f6209b1096fbef62427c856dab

     atomic species   valence    mass     pseudopotential
        Cu            19.00     1.00000     Cu( 1.00)
        C              4.00     1.00000     C ( 1.00)
        H              1.00     1.00000     H ( 1.00)

     No symmetry found



   Cartesian axes

     site n.     atom                  positions (alat units)
         1           Cu  tau(   1) = (   0.1666667   0.0962250   0.2552686  )
         2           Cu  tau(   2) = (   0.5000000   0.0962250   0.2552686  )
         3           Cu  tau(   3) = (   0.8333333   0.0962250   0.2552686  )
         4           Cu  tau(   4) = (   0.3333333   0.3849002   0.2552686  )
         5           Cu  tau(   5) = (   0.6666667   0.3849002   0.2552686  )
         6           Cu  tau(   6) = (   1.0000000   0.3849002   0.2552686  )
         7           Cu  tau(   7) = (   0.5000000   0.6735753   0.2552686  )
         8           Cu  tau(   8) = (   0.8333333   0.6735753   0.2552686  )
         9           Cu  tau(   9) = (   1.1666667   0.6735753   0.2552686  )
        10           Cu  tau(  10) = (   0.0000000   0.1924501   0.5274341  )
        11           Cu  tau(  11) = (   0.3333333   0.1924501   0.5274341  )
        12           Cu  tau(  12) = (   0.6666667   0.1924501   0.5274341  )
        13           Cu  tau(  13) = (   0.1666667   0.4811252   0.5274341  )
        14           Cu  tau(  14) = (   0.5000000   0.4811252   0.5274341  )
        15           Cu  tau(  15) = (   0.8333333   0.4811252   0.5274341  )
        16           Cu  tau(  16) = (   0.3333333   0.7698004   0.5274341  )
        17           Cu  tau(  17) = (   0.6666667   0.7698004   0.5274341  )
        18           Cu  tau(  18) = (   1.0000000   0.7698004   0.5274341  )
        19           Cu  tau(  19) = (   0.0000000   0.0000000   0.7995997  )
        20           Cu  tau(  20) = (   0.3333333   0.0000000   0.7995997  )
        21           Cu  tau(  21) = (   0.6666667   0.0000000   0.7995997  )
        22           Cu  tau(  22) = (   0.1666667   0.2886751   0.7995997  )
        23           Cu  tau(  23) = (   0.5000000   0.2886751   0.7995997  )
        24           Cu  tau(  24) = (   0.8333333   0.2886751   0.7995997  )
        25           Cu  tau(  25) = (   0.3333333   0.5773503   0.7995997  )
        26           Cu  tau(  26) = (   0.6666667   0.5773503   0.7995997  )
        27           Cu  tau(  27) = (   1.0000000   0.5773503   0.7995997  )
        28           Cu  tau(  28) = (   0.1666659   0.0962246   1.0691130  )
        29           Cu  tau(  29) = (   0.5000000   0.0962241   1.0691104  )
        30           Cu  tau(  30) = (   0.8333341   0.0962246   1.0691130  )
        31           Cu  tau(  31) = (   0.3333325   0.3849006   1.0691104  )
        32           Cu  tau(  32) = (   0.6666675   0.3849006   1.0691104  )
        33           Cu  tau(  33) = (   1.0000000   0.3849003   1.0691143  )
        34           Cu  tau(  34) = (   0.5000000   0.6735762   1.0691130  )
        35           Cu  tau(  35) = (   0.8333334   0.6735753   1.0691143  )
        36           Cu  tau(  36) = (   1.1666666   0.6735753   1.0691143  )
        37           Cu  tau(  37) = (   0.0000000   0.1924486   1.3387540  )
        38           Cu  tau(  38) = (   0.3333330   0.1924499   1.3387465  )
        39           Cu  tau(  39) = (   0.6666670   0.1924499   1.3387465  )
        40           Cu  tau(  40) = (   0.1666676   0.4811247   1.3387504  )
        41           Cu  tau(  41) = (   0.5000000   0.4811256   1.3387465  )
        42           Cu  tau(  42) = (   0.8333324   0.4811247   1.3387504  )
        43           Cu  tau(  43) = (   0.3333346   0.7698011   1.3387540  )
        44           Cu  tau(  44) = (   0.6666654   0.7698011   1.3387540  )
        45           Cu  tau(  45) = (   1.0000000   0.7698014   1.3387504  )
        46           Cu  tau(  46) = (   0.0000000   0.0000000   1.6083750  )
        47           Cu  tau(  47) = (   0.3333333   0.0000005   1.6083624  )
        48           Cu  tau(  48) = (   0.6666667   0.0000005   1.6083624  )
        49           Cu  tau(  49) = (   0.1666671   0.2886748   1.6083624  )
        50           Cu  tau(  50) = (   0.5000000   0.2886751   1.6083553  )
        51           Cu  tau(  51) = (   0.8333329   0.2886748   1.6083624  )
        52           Cu  tau(  52) = (   0.3333338   0.5773500   1.6083624  )
        53           Cu  tau(  53) = (   0.6666662   0.5773500   1.6083624  )
        54           Cu  tau(  54) = (   1.0000000   0.5773503   1.6083570  )
        55           C   tau(  55) = (   0.6567407   0.3959883   2.0039842  )
        56           C   tau(  56) = (   0.5046394   0.3028152   2.0039842  )
        57           C   tau(  57) = (   0.3478975   0.3879497   2.0039842  )
        58           C   tau(  58) = (   0.3432593   0.5662630   2.0039842  )
        59           C   tau(  59) = (   0.4953606   0.6594361   2.0039842  )
        60           C   tau(  60) = (   0.6521025   0.5743016   2.0039842  )
        61           H   tau(  61) = (   0.7789959   0.3295665   2.0040625  )
        62           H   tau(  62) = (   0.5082587   0.1637263   2.0040625  )
        63           H   tau(  63) = (   0.2292624   0.3152577   2.0040625  )
        64           H   tau(  64) = (   0.2210041   0.6326847   2.0040625  )
        65           H   tau(  65) = (   0.4917413   0.7985249   2.0040625  )
        66           H   tau(  66) = (   0.7707376   0.6469936   2.0040625  )

     number of k points=    10  gaussian smearing, width (Ry)=  0.0200
                       cart. coord. in units 2pi/alat
        k(    1) = (   0.0000000   0.0000000   0.0000000), wk =   0.1250000
        k(    2) = (   0.0000000   0.2886751   0.0000000), wk =   0.2500000
        k(    3) = (   0.0000000  -0.5773503   0.0000000), wk =   0.1250000
        k(    4) = (   0.2500000  -0.7216878   0.0000000), wk =   0.2500000
        k(    5) = (  -0.2500000   0.1443376   0.0000000), wk =   0.2500000
        k(    6) = (   0.2500000   0.1443376   0.0000000), wk =   0.2500000
        k(    7) = (   0.5000000  -0.2886751   0.0000000), wk =   0.1250000
        k(    8) = (  -0.5000000  -0.2886751   0.0000000), wk =   0.1250000
        k(    9) = (  -0.2500000  -0.7216878   0.0000000), wk =   0.2500000
        k(   10) = (  -0.5000000  -0.5773503   0.0000000), wk =   0.2500000

     Dense  grid:  2552337 G-vectors     FFT dimensions: ( 120, 120, 432)

     Smooth grid:   491295 G-vectors     FFT dimensions: (  72,  72, 243)

     Estimated max dynamical RAM per process >       1.14 GB

     Estimated total dynamical RAM >      18.26 GB

     Initial potential from superposition of free atoms
     Check: negative starting charge=   -0.000789

     starting charge 1001.99960, renormalised to 1056.00000

     negative rho (up, down):  8.316E-04 0.000E+00


     %%%%%%%%%%%%%%%%%%%%%%%%%%%%%%%%%%%%%%%%%%%%%%%%%%%%%%%%%%%%%%%%%%%%%%%%
     %                                                                      %
     % You are using vdW-DF, which was implemented by the Thonhauser group. %
     % Please cite the following two papers that made this development      %
     % possible and the two reviews that describe the various versions:     %
     %                                                                      %
     %   T. Thonhauser et al., PRL 115, 136402 (2015).                      %
     %   T. Thonhauser et al., PRB 76, 125112 (2007).                       %
     %   K. Berland et al., Rep. Prog. Phys. 78, 066501 (2015).             %
     %   D.C. Langreth et al., J. Phys.: Condens. Matter 21, 084203 (2009). %
     %                                                                      %
     %                                                                      %
     % If you are calculating the stress with vdW-DF, please also cite:     %
     %                                                                      %
     %   R. Sabatini et al., J. Phys.: Condens. Matter 24, 424209 (2012).   %
     %                                                                      %
     %%%%%%%%%%%%%%%%%%%%%%%%%%%%%%%%%%%%%%%%%%%%%%%%%%%%%%%%%%%%%%%%%%%%%%%%


     Starting wfcs are  732 randomized atomic wfcs

     total cpu time spent up to now is      102.3 secs

     Self-consistent Calculation

     iteration #  1     ecut=    50.00 Ry     beta= 0.30
     Davidson diagonalization with overlap
     ethr =  1.00E-02,  avg # of iterations =  6.1

     negative rho (up, down):  5.044E-04 0.000E+00

     total cpu time spent up to now is     1416.8 secs

     total energy              =  -18859.56286838 Ry
     Harris-Foulkes estimate   =  -22009.77199115 Ry
     estimated scf accuracy    <    6225.67385817 Ry

     iteration #  2     ecut=    50.00 Ry     beta= 0.30
     Davidson diagonalization with overlap
     c_bands:  1 eigenvalues not converged
     ethr =  1.00E-02,  avg # of iterations = 18.9

     negative rho (up, down):  5.425E-04 0.000E+00

     total cpu time spent up to now is     4230.3 secs

     total energy              =  -19249.05574129 Ry
     Harris-Foulkes estimate   =  -39164.18708403 Ry
     estimated scf accuracy    <  280382.42745449 Ry

     iteration #  3     ecut=    50.00 Ry     beta= 0.30
     Davidson diagonalization with overlap
     ethr =  1.00E-02,  avg # of iterations =  7.5

     negative rho (up, down):  6.153E-04 0.000E+00

     total cpu time spent up to now is     5836.2 secs

     total energy              =  -21574.41977047 Ry
     Harris-Foulkes estimate   =  -23483.36668459 Ry
     estimated scf accuracy    <   53535.14631747 Ry

     iteration #  4     ecut=    50.00 Ry     beta= 0.30
     Davidson diagonalization with overlap
     ethr =  1.00E-02,  avg # of iterations =  8.5

     negative rho (up, down):  8.262E-04 0.000E+00

     total cpu time spent up to now is     7060.9 secs

     total energy              =  -21689.69191669 Ry
     Harris-Foulkes estimate   =  -22132.86798920 Ry
     estimated scf accuracy    <   13694.82738886 Ry

     iteration #  5     ecut=    50.00 Ry     beta= 0.30
     Davidson diagonalization with overlap
     ethr =  1.00E-02,  avg # of iterations =  6.3

     negative rho (up, down):  9.161E-04 0.000E+00

     total cpu time spent up to now is     8436.5 secs

     total energy              =  -21766.98912925 Ry
     Harris-Foulkes estimate   =  -22220.80157601 Ry
     estimated scf accuracy    <    9208.18640355 Ry

     iteration #  6     ecut=    50.00 Ry     beta= 0.30
     Davidson diagonalization with overlap
     ethr =  1.00E-02,  avg # of iterations =  6.7

     negative rho (up, down):  1.073E-03 0.000E+00

     total cpu time spent up to now is     9579.1 secs

     total energy              =  -21895.19799445 Ry
     Harris-Foulkes estimate   =  -21963.30093144 Ry
     estimated scf accuracy    <    1513.60261414 Ry

     iteration #  7     ecut=    50.00 Ry     beta= 0.30
     Davidson diagonalization with overlap
     ethr =  1.00E-02,  avg # of iterations =  2.3

     negative rho (up, down):  1.231E-03 0.000E+00

     total cpu time spent up to now is     9854.1 secs

     total energy              =  -21914.86400066 Ry
     Harris-Foulkes estimate   =  -21934.67949208 Ry
     estimated scf accuracy    <     129.37060623 Ry

     iteration #  8     ecut=    50.00 Ry     beta= 0.30
     Davidson diagonalization with overlap
     ethr =  1.00E-02,  avg # of iterations =  2.1

     negative rho (up, down):  1.350E-03 0.000E+00

     total cpu time spent up to now is    10117.4 secs

     total energy              =  -21915.63378458 Ry
     Harris-Foulkes estimate   =  -21919.74276985 Ry
     estimated scf accuracy    <     127.25023820 Ry

     iteration #  9     ecut=    50.00 Ry     beta= 0.30
     Davidson diagonalization with overlap
     ethr =  1.00E-02,  avg # of iterations =  1.0

     negative rho (up, down):  1.441E-03 0.000E+00

     total cpu time spent up to now is    10351.4 secs

     total energy              =  -21914.42536673 Ry
     Harris-Foulkes estimate   =  -21916.30697655 Ry
     estimated scf accuracy    <      96.06991396 Ry

     iteration # 10     ecut=    50.00 Ry     beta= 0.30
     Davidson diagonalization with overlap
     ethr =  9.10E-03,  avg # of iterations =  1.0

     negative rho (up, down):  1.822E-03 0.000E+00

     total cpu time spent up to now is    10583.5 secs

     total energy              =  -21891.27370022 Ry
     Harris-Foulkes estimate   =  -21914.59475633 Ry
     estimated scf accuracy    <     103.42749259 Ry

     iteration # 11     ecut=    50.00 Ry     beta= 0.30
     Davidson diagonalization with overlap
     ethr =  9.10E-03,  avg # of iterations =  4.0

     negative rho (up, down):  1.882E-04 0.000E+00

     total cpu time spent up to now is    11040.1 secs

     total energy              =  -21898.77185915 Ry
     Harris-Foulkes estimate   =  -21917.81789837 Ry
     estimated scf accuracy    <     388.86572589 Ry

     iteration # 12     ecut=    50.00 Ry     beta= 0.30
     Davidson diagonalization with overlap
     ethr =  9.10E-03,  avg # of iterations =  1.3

     negative rho (up, down):  3.511E-04 0.000E+00

     total cpu time spent up to now is    11291.0 secs

     total energy              =  -21900.09447536 Ry
     Harris-Foulkes estimate   =  -21906.74561594 Ry
     estimated scf accuracy    <      54.14343228 Ry

     iteration # 13     ecut=    50.00 Ry     beta= 0.30
     Davidson diagonalization with overlap
     ethr =  5.13E-03,  avg # of iterations =  2.9

     negative rho (up, down):  3.885E-04 0.000E+00

     total cpu time spent up to now is    11589.2 secs

     total energy              =  -21903.47141867 Ry
     Harris-Foulkes estimate   =  -21903.89605135 Ry
     estimated scf accuracy    <       5.30241681 Ry

     iteration # 14     ecut=    50.00 Ry     beta= 0.30
     Davidson diagonalization with overlap
     ethr =  5.02E-04,  avg # of iterations =  5.5

     negative rho (up, down):  3.163E-04 0.000E+00

     total cpu time spent up to now is    12058.9 secs

     total energy              =  -21903.69176166 Ry
     Harris-Foulkes estimate   =  -21904.06660624 Ry
     estimated scf accuracy    <       2.88176115 Ry

     iteration # 15     ecut=    50.00 Ry     beta= 0.30
     Davidson diagonalization with overlap
     ethr =  2.73E-04,  avg # of iterations =  2.9

     negative rho (up, down):  3.786E-04 0.000E+00

     total cpu time spent up to now is    12350.2 secs

     total energy              =  -21903.76643626 Ry
     Harris-Foulkes estimate   =  -21903.86159551 Ry
     estimated scf accuracy    <       0.99489608 Ry

     iteration # 16     ecut=    50.00 Ry     beta= 0.30
     Davidson diagonalization with overlap
     ethr =  9.42E-05,  avg # of iterations =  5.8

     negative rho (up, down):  4.197E-04 0.000E+00

     total cpu time spent up to now is    12715.5 secs

     total energy              =  -21903.78745755 Ry
     Harris-Foulkes estimate   =  -21903.84352147 Ry
     estimated scf accuracy    <       0.55458612 Ry

     iteration # 17     ecut=    50.00 Ry     beta= 0.30
     Davidson diagonalization with overlap
     ethr =  5.25E-05,  avg # of iterations =  6.9

     negative rho (up, down):  5.478E-04 0.000E+00

     total cpu time spent up to now is    13115.3 secs

     total energy              =  -21903.75715855 Ry
     Harris-Foulkes estimate   =  -21903.81244478 Ry
     estimated scf accuracy    <       0.66018376 Ry

     iteration # 18     ecut=    50.00 Ry     beta= 0.30
     Davidson diagonalization with overlap
     ethr =  5.25E-05,  avg # of iterations =  7.3

     negative rho (up, down):  6.879E-04 0.000E+00

     total cpu time spent up to now is    13546.3 secs

     total energy              =  -21903.75804303 Ry
     Harris-Foulkes estimate   =  -21903.77345561 Ry
     estimated scf accuracy    <       0.08960612 Ry

     iteration # 19     ecut=    50.00 Ry     beta= 0.30
     Davidson diagonalization with overlap
     ethr =  8.49E-06,  avg # of iterations =  7.6

     negative rho (up, down):  7.046E-04 0.000E+00

     total cpu time spent up to now is    14030.9 secs

     total energy              =  -21903.76326073 Ry
     Harris-Foulkes estimate   =  -21903.76648285 Ry
     estimated scf accuracy    <       0.14207653 Ry

     iteration # 20     ecut=    50.00 Ry     beta= 0.30
     Davidson diagonalization with overlap
     ethr =  8.49E-06,  avg # of iterations =  1.0

     negative rho (up, down):  9.964E-04 0.000E+00

     total cpu time spent up to now is    14267.3 secs

     total energy              =  -21903.75690511 Ry
     Harris-Foulkes estimate   =  -21903.76513811 Ry
     estimated scf accuracy    <       0.05323642 Ry

     iteration # 21     ecut=    50.00 Ry     beta= 0.30
     Davidson diagonalization with overlap
     ethr =  5.04E-06,  avg # of iterations =  7.3

     negative rho (up, down):  1.153E-03 0.000E+00

     total cpu time spent up to now is    14739.9 secs

     total energy              =  -21903.75798460 Ry
     Harris-Foulkes estimate   =  -21903.76291105 Ry
     estimated scf accuracy    <       0.03275119 Ry

     iteration # 22     ecut=    50.00 Ry     beta= 0.30
     Davidson diagonalization with overlap
     ethr =  3.10E-06,  avg # of iterations =  6.3

     negative rho (up, down):  1.282E-03 0.000E+00

     total cpu time spent up to now is    15156.0 secs

     total energy              =  -21903.76022076 Ry
     Harris-Foulkes estimate   =  -21903.76094019 Ry
     estimated scf accuracy    <       0.00434507 Ry

     iteration # 23     ecut=    50.00 Ry     beta= 0.30
     Davidson diagonalization with overlap
     ethr =  4.11E-07,  avg # of iterations =  2.3

     negative rho (up, down):  1.509E-03 0.000E+00

     total cpu time spent up to now is    15426.6 secs

     total energy              =  -21903.76048299 Ry
     Harris-Foulkes estimate   =  -21903.76066501 Ry
     estimated scf accuracy    <       0.00135845 Ry

     iteration # 24     ecut=    50.00 Ry     beta= 0.30
     Davidson diagonalization with overlap
     ethr =  1.29E-07,  avg # of iterations =  5.7

     negative rho (up, down):  1.699E-03 0.000E+00

     total cpu time spent up to now is    15824.1 secs

     total energy              =  -21903.76054173 Ry
     Harris-Foulkes estimate   =  -21903.76073279 Ry
     estimated scf accuracy    <       0.00201826 Ry

     iteration # 25     ecut=    50.00 Ry     beta= 0.30
     Davidson diagonalization with overlap
     ethr =  1.29E-07,  avg # of iterations =  2.0

     negative rho (up, down):  1.806E-03 0.000E+00

     total cpu time spent up to now is    16097.1 secs

     total energy              =  -21903.76064860 Ry
     Harris-Foulkes estimate   =  -21903.76067720 Ry
     estimated scf accuracy    <       0.00023125 Ry

     iteration # 26     ecut=    50.00 Ry     beta= 0.30
     Davidson diagonalization with overlap
     ethr =  2.19E-08,  avg # of iterations =  2.0

     negative rho (up, down):  2.134E-03 0.000E+00

     total cpu time spent up to now is    16366.1 secs

     total energy              =  -21903.76068366 Ry
     Harris-Foulkes estimate   =  -21903.76068597 Ry
     estimated scf accuracy    <       0.00028905 Ry

     iteration # 27     ecut=    50.00 Ry     beta= 0.30
     Davidson diagonalization with overlap
     c_bands:  1 eigenvalues not converged
     ethr =  2.19E-08,  avg # of iterations =  5.8

     negative rho (up, down):  2.269E-03 0.000E+00

     total cpu time spent up to now is    16756.0 secs

     total energy              =  -21903.76070196 Ry
     Harris-Foulkes estimate   =  -21903.76070194 Ry
     estimated scf accuracy    <       0.00003077 Ry

     iteration # 28     ecut=    50.00 Ry     beta= 0.30
     Davidson diagonalization with overlap
     ethr =  2.91E-09,  avg # of iterations =  2.0

     negative rho (up, down):  2.389E-03 0.000E+00

     total cpu time spent up to now is    17023.0 secs

     total energy              =  -21903.76070661 Ry
     Harris-Foulkes estimate   =  -21903.76070548 Ry
     estimated scf accuracy    <       0.00000826 Ry

     iteration # 29     ecut=    50.00 Ry     beta= 0.30
     Davidson diagonalization with overlap
     ethr =  7.83E-10,  avg # of iterations =  2.0

     negative rho (up, down):  2.474E-03 0.000E+00

     total cpu time spent up to now is    17283.5 secs

     total energy              =  -21903.76070769 Ry
     Harris-Foulkes estimate   =  -21903.76070747 Ry
     estimated scf accuracy    <       0.00000194 Ry

     iteration # 30     ecut=    50.00 Ry     beta= 0.30
     Davidson diagonalization with overlap
     ethr =  1.84E-10,  avg # of iterations =  3.0

     negative rho (up, down):  2.528E-03 0.000E+00

     total cpu time spent up to now is    17594.1 secs

     total energy              =  -21903.76070771 Ry
     Harris-Foulkes estimate   =  -21903.76070806 Ry
     estimated scf accuracy    <       0.00000155 Ry

     iteration # 31     ecut=    50.00 Ry     beta= 0.30
     Davidson diagonalization with overlap
     ethr =  1.47E-10,  avg # of iterations =  2.0

     negative rho (up, down):  2.553E-03 0.000E+00

     total cpu time spent up to now is    17847.8 secs

     total energy              =  -21903.76070769 Ry
     Harris-Foulkes estimate   =  -21903.76070788 Ry
     estimated scf accuracy    <       0.00000046 Ry

     iteration # 32     ecut=    50.00 Ry     beta= 0.30
     Davidson diagonalization with overlap
     ethr =  4.31E-11,  avg # of iterations =  2.0

     negative rho (up, down):  2.568E-03 0.000E+00

     total cpu time spent up to now is    18100.4 secs

     total energy              =  -21903.76070759 Ry
     Harris-Foulkes estimate   =  -21903.76070776 Ry
     estimated scf accuracy    <       0.00000057 Ry

     iteration # 33     ecut=    50.00 Ry     beta= 0.30
     Davidson diagonalization with overlap
     ethr =  4.31E-11,  avg # of iterations =  2.0

     negative rho (up, down):  2.571E-03 0.000E+00

     total cpu time spent up to now is    18355.4 secs

     total energy              =  -21903.76070758 Ry
     Harris-Foulkes estimate   =  -21903.76070764 Ry
     estimated scf accuracy    <       0.00000040 Ry

     iteration # 34     ecut=    50.00 Ry     beta= 0.30
     Davidson diagonalization with overlap
     ethr =  3.74E-11,  avg # of iterations =  1.0

     negative rho (up, down):  2.575E-03 0.000E+00

     total cpu time spent up to now is    18579.0 secs

     total energy              =  -21903.76070755 Ry
     Harris-Foulkes estimate   =  -21903.76070760 Ry
     estimated scf accuracy    <       0.00000003 Ry

     iteration # 35     ecut=    50.00 Ry     beta= 0.30
     Davidson diagonalization with overlap
     ethr =  2.60E-12,  avg # of iterations =  2.0

     negative rho (up, down):  2.577E-03 0.000E+00

     total cpu time spent up to now is    18844.4 secs

     total energy              =  -21903.76070754 Ry
     Harris-Foulkes estimate   =  -21903.76070755 Ry
     estimated scf accuracy    <       0.00000002 Ry

     iteration # 36     ecut=    50.00 Ry     beta= 0.30
     Davidson diagonalization with overlap
     ethr =  1.59E-12,  avg # of iterations =  2.0

     negative rho (up, down):  2.579E-03 0.000E+00

     total cpu time spent up to now is    19091.5 secs

     End of self-consistent calculation

          k = 0.0000 0.0000 0.0000 ( 61453 PWs)   bands (ev):

  -107.7604-107.7558-107.7509-107.7509-107.7503-107.7499-107.7498-107.7498
  -107.7484-107.7472-107.7472-107.7466-107.7466-107.7458-107.7458-107.7458
  -107.7453-107.7449-107.7420-107.7420-107.7415-107.7400-107.7400-107.7388
  -107.7368-107.7368-107.7362-107.7328-107.7327-107.7312-107.7311-107.7311
  -107.7311-107.7298-107.7288-107.7266-107.5552-107.5523-107.5523-107.5418
  -107.5393-107.5393-107.5299-107.5276-107.5276-107.4967-107.4919-107.4919
  -107.4918-107.4912-107.4912-107.4912-107.4889-107.4889 -65.2116 -65.2006
   -65.1980 -65.1980 -65.1973 -65.1973 -65.1963 -65.1913 -65.1910 -65.1910
   -65.1897 -65.1897 -65.1889 -65.1887 -65.1887 -65.1864 -65.1859 -65.1859
   -65.1855 -65.1844 -65.1799 -65.1799 -65.1785 -65.1772 -65.1767 -65.1767
   -65.1755 -65.1754 -65.1754 -65.1747 -65.1747 -65.1736 -65.1736 -65.1731
   -65.1716 -65.1711 -65.1711 -65.1706 -65.1665 -65.1665 -65.1662 -65.1652
   -65.1648 -65.1648 -65.1643 -65.1643 -65.1615 -65.1607 -65.1607 -65.1584
   -65.1580 -65.1577 -65.1577 -65.1576 -65.1576 -65.1569 -65.1523 -65.1506
   -65.1506 -65.1498 -65.1498 -65.1490 -65.1487 -65.1487 -65.1482 -65.1480
   -65.1480 -65.1471 -65.1463 -65.1458 -65.1457 -65.1452 -65.1452 -65.1429
   -65.1429 -65.1399 -65.1398 -65.1397 -65.1397 -65.1392 -65.1392 -65.1381
   -65.1381 -65.1378 -65.1370 -65.1370 -65.1369 -65.1345 -65.1332 -65.1332
   -65.1330 -65.1319 -65.1319 -65.1319 -65.1309 -65.1309 -65.1256 -65.1256
   -65.1250 -65.1249 -65.1249 -65.1240 -65.1236 -65.1236 -65.1203 -65.1203
   -65.1135 -65.1135 -65.0055 -65.0055 -65.0053 -64.9968 -64.9941 -64.9941
   -64.9938 -64.9905 -64.9905 -64.9821 -64.9665 -64.9610 -64.9609 -64.9589
   -64.9589 -64.9530 -64.9514 -64.9510 -64.9510 -64.9509 -64.9506 -64.9506
   -64.9483 -64.9483 -64.9481 -64.9477 -64.9437 -64.9437 -64.9379 -64.9353
   -64.9353 -64.9211 -64.9188 -64.9188 -64.9158 -64.9158 -64.9156 -64.9156
   -64.9156 -64.9150 -64.9078 -64.9056 -64.9056 -64.9034 -64.9034 -64.8685
   -64.8640 -64.8640 -64.8640 -64.8634 -64.8634 -64.8633 -64.8611 -64.8611
   -12.9297 -10.1740 -10.1738  -6.5701  -6.5695  -4.6418  -4.0230  -3.4071
    -3.0312  -2.6622  -2.4683  -2.0025  -2.0024  -1.3964  -1.0641  -1.0575
    -1.0575  -1.0569  -1.0569  -1.0569  -0.9059  -0.6564  -0.6564  -0.6546
    -0.6546  -0.6541  -0.6414  -0.4045  -0.1602  -0.1601  -0.1589  -0.1589
    -0.1578  -0.1551  -0.1360  -0.0610  -0.0608   0.2888   0.2888   0.2956
     0.2974   0.2974   0.3028   0.6378   0.6378   0.6454   0.6457   0.6457
     0.6499   0.7714   0.7714   0.7729   0.7736   0.7736   0.7750   0.8205
     0.8205   0.8221   0.8221   0.8224   0.8236   0.8527   0.8527   0.8666
     0.8666   0.8747   0.8748   0.9706   0.9708   0.9814   0.9814   0.9918
     0.9918   0.9953   0.9977   0.9977   0.9996   1.0114   1.0114   1.0126
     1.0126   1.0521   1.0521   1.1050   1.1050   1.1946   1.1946   1.2053
     1.2053   1.2087   1.2095   1.2095   1.2121   1.2496   1.2496   1.4216
     1.4216   1.4456   1.4456   1.4467   1.4485   1.5666   1.5666   1.5825
     1.5825   1.5903   1.5903   1.6014   1.6014   1.6023   1.6037   1.6401
     1.6404   1.6442   1.6614   1.6742   1.6742   1.7150   1.7150   1.7159
     1.7162   1.7275   1.7275   1.7385   1.7385   1.7565   1.7565   1.7834
     1.7930   1.7930   1.7999   1.7999   1.7999   1.8024   1.8243   1.8243
     1.8425   1.8425   1.8529   1.8536   1.8536   1.8543   1.8645   1.8645
     1.8744   1.8746   1.8746   1.8757   1.8760   1.8760   1.8818   1.8818
     1.8936   1.9725   1.9725   1.9886   1.9893   1.9983   1.9983   2.0000
     2.0032   2.0216   2.0216   2.0279   2.0279   2.0534   2.0537   2.0545
     2.0545   2.0744   2.0744   2.0747   2.0758   2.0758   2.0761   2.0768
     2.0769   2.2576   2.2576   2.2585   2.2642   2.3041   2.3041   2.3304
     2.3310   2.3310   2.3329   2.3329   2.3330   2.3828   2.3829   2.3874
     2.3900   2.4121   2.4121   2.4144   2.4144   2.4342   2.4342   2.4377
     2.4378   2.4921   2.5036   2.5036   2.5290   2.5290   2.5311   2.5311
     2.5317   2.5408   2.5489   2.5489   2.5581   2.5581   2.5610   2.5629
     2.5629   2.5633   2.5633   2.5636   2.5722   2.5722   2.6364   2.6364
     2.7028   2.7032   2.7032   2.7042   2.7044   2.7044   2.7571   2.7581
     2.7581   2.7600   2.7641   2.7641   2.7641   2.7648   2.7651   2.7651
     2.7701   2.7701   2.8209   2.8209   2.8302   2.8312   2.8312   2.8323
     2.8323   2.8327   2.8434   2.8435   2.8435   2.8442   2.8445   2.8445
     2.8657   2.8657   2.8657   2.8660   2.8665   2.8665   2.8845   2.8845
     2.9110   2.9110   2.9205   2.9241   2.9241   2.9269   2.9270   2.9286
     2.9405   2.9407   2.9606   2.9609   2.9609   2.9618   2.9618   2.9623
     2.9870   2.9870   2.9873   2.9873   2.9968   2.9968   3.0150   3.0155
     3.0241   3.0244   3.0244   3.0264   3.0264   3.0270   3.0495   3.0495
     3.0507   3.0563   3.0563   3.0616   3.1054   3.1054   3.1055   3.1075
     3.1075   3.1076   3.1100   3.1100   3.9411   4.0241   4.0241   4.0301
     4.0784   4.0967   4.0967   4.5707   5.4351   5.4352   5.4573   5.5020
     5.5422   5.5422   6.8777   6.8778   7.0082   7.2127   7.3208   7.3608
     7.3608   7.4391   7.4392   7.9019   7.9019   7.9025   7.9028   7.9191
     7.9191   8.1877   8.2926   8.2926   8.3164   8.3164   8.4514   8.6969
     8.7015   8.8042   8.8911   8.8911   8.9554   8.9565   9.0172   9.1518
     9.1518   9.3507   9.4414   9.5833   9.5833   9.5948   9.5948   9.8560
     9.8562   9.8928   9.9654   9.9689  10.5538  10.5838  10.7029  10.7029
    10.7619  10.7619  10.8803  10.8804  10.9555  10.9556  11.0195  11.0195
    11.0222  11.1494  11.2018  11.3491  11.3491  11.4077  11.4077  11.4327
    11.5318  11.6181  11.6181  11.7823  11.8393  11.8393  11.8852  11.8852
    11.9442  11.9726  11.9727  11.9934  11.9934  12.0429  12.1401  12.2327
    12.2327  12.2712  12.3086  12.3751  12.3751  12.5310  12.5310  12.7743
    12.8704  12.8799  12.8800  13.0292  13.0292  13.0545  13.0571  13.0893
    13.1742  13.1856

          k = 0.0000 0.2887 0.0000 ( 61417 PWs)   bands (ev):

  -107.7603-107.7554-107.7522-107.7513-107.7504-107.7498-107.7491-107.7489
  -107.7481-107.7474-107.7474-107.7466-107.7466-107.7461-107.7460-107.7454
  -107.7453-107.7447-107.7428-107.7421-107.7415-107.7398-107.7398-107.7386
  -107.7368-107.7368-107.7359-107.7332-107.7327-107.7318-107.7317-107.7306
  -107.7303-107.7295-107.7290-107.7267-107.5551-107.5524-107.5523-107.5419
  -107.5393-107.5392-107.5300-107.5276-107.5275-107.4962-107.4933-107.4922
  -107.4921-107.4908-107.4907-107.4902-107.4891-107.4891 -65.2103 -65.2020
   -65.2004 -65.1993 -65.1985 -65.1981 -65.1974 -65.1968 -65.1946 -65.1943
   -65.1930 -65.1928 -65.1916 -65.1912 -65.1870 -65.1864 -65.1855 -65.1840
   -65.1829 -65.1824 -65.1816 -65.1814 -65.1812 -65.1806 -65.1791 -65.1791
   -65.1784 -65.1774 -65.1741 -65.1739 -65.1719 -65.1711 -65.1710 -65.1700
   -65.1698 -65.1688 -65.1685 -65.1676 -65.1661 -65.1659 -65.1639 -65.1638
   -65.1616 -65.1604 -65.1603 -65.1598 -65.1591 -65.1591 -65.1579 -65.1574
   -65.1564 -65.1558 -65.1551 -65.1545 -65.1541 -65.1532 -65.1526 -65.1524
   -65.1512 -65.1507 -65.1501 -65.1501 -65.1496 -65.1492 -65.1488 -65.1471
   -65.1464 -65.1452 -65.1451 -65.1442 -65.1438 -65.1432 -65.1427 -65.1424
   -65.1421 -65.1415 -65.1414 -65.1407 -65.1404 -65.1402 -65.1402 -65.1390
   -65.1387 -65.1376 -65.1372 -65.1362 -65.1358 -65.1356 -65.1351 -65.1348
   -65.1346 -65.1340 -65.1322 -65.1317 -65.1315 -65.1288 -65.1285 -65.1284
   -65.1282 -65.1271 -65.1261 -65.1247 -65.1246 -65.1238 -65.1214 -65.1207
   -65.1176 -65.1145 -65.0115 -65.0083 -65.0078 -65.0003 -64.9961 -64.9907
   -64.9892 -64.9845 -64.9843 -64.9754 -64.9688 -64.9634 -64.9624 -64.9617
   -64.9600 -64.9576 -64.9569 -64.9567 -64.9557 -64.9555 -64.9535 -64.9471
   -64.9445 -64.9438 -64.9436 -64.9381 -64.9379 -64.9378 -64.9354 -64.9353
   -64.9351 -64.9211 -64.9197 -64.9195 -64.9188 -64.9187 -64.9185 -64.9156
   -64.9153 -64.9115 -64.9078 -64.9076 -64.9056 -64.9056 -64.9044 -64.8681
   -64.8653 -64.8644 -64.8642 -64.8630 -64.8628 -64.8624 -64.8613 -64.8613
   -12.9290 -10.1775 -10.1745  -6.5728  -6.5654  -4.6149  -3.8097  -3.1986
    -3.0036  -2.6658  -2.2718  -2.2080  -2.0494  -2.0103  -1.6634  -1.4971
    -1.4951  -1.2380  -1.0238  -1.0139  -0.9125  -0.7878  -0.4391  -0.4386
    -0.3550  -0.3484  -0.2554  -0.2277  -0.1559  -0.1538  -0.1069  -0.0638
    -0.0191   0.0154   0.0208   0.1170   0.1204   0.1206   0.2900   0.3012
     0.3252   0.3906   0.3913   0.5708   0.5811   0.6134   0.6134   0.6327
     0.6495   0.6495   0.6693   0.6706   0.7120   0.7186   0.7203   0.7217
     0.7323   0.7329   0.7746   0.7746   0.8096   0.8098   0.8398   0.8400
     0.8417   0.8906   0.8928   0.9064   0.9064   0.9264   0.9272   0.9392
     0.9395   0.9671   0.9680   1.0154   1.0825   1.0826   1.0837   1.1114
     1.1115   1.1223   1.1249   1.1562   1.1569   1.1957   1.1979   1.1981
     1.2653   1.2654   1.2750   1.2870   1.3069   1.3089   1.3529   1.3551
     1.3647   1.3862   1.3872   1.3952   1.4186   1.4625   1.4691   1.4784
     1.4807   1.4934   1.5089   1.5267   1.5447   1.5606   1.5648   1.5744
     1.5887   1.5934   1.6215   1.6588   1.6600   1.6876   1.6900   1.6962
     1.6987   1.7093   1.7147   1.7271   1.7499   1.7553   1.7599   1.7698
     1.7724   1.7809   1.7880   1.7949   1.8035   1.8084   1.8154   1.8265
     1.8384   1.8456   1.8461   1.8532   1.8581   1.8687   1.8719   1.8769
     1.8794   1.8829   1.8869   1.8885   1.9080   1.9116   1.9185   1.9281
     1.9318   1.9440   1.9452   1.9592   1.9640   1.9701   1.9710   1.9923
     2.0009   2.0028   2.0161   2.0245   2.0247   2.0274   2.0345   2.0398
     2.0550   2.0615   2.0882   2.0933   2.1062   2.1072   2.1105   2.1114
     2.1243   2.1379   2.1393   2.1481   2.1665   2.1680   2.1740   2.1901
     2.2144   2.2179   2.2481   2.2590   2.2631   2.2641   2.2708   2.2732
     2.3234   2.3429   2.3669   2.3672   2.3734   2.3752   2.3899   2.3907
     2.4200   2.4207   2.4319   2.4329   2.4358   2.4387   2.4609   2.4627
     2.4991   2.5041   2.5087   2.5098   2.5169   2.5415   2.5448   2.5471
     2.5486   2.5518   2.5817   2.5946   2.5981   2.6011   2.6037   2.6185
     2.6244   2.6250   2.6427   2.6445   2.6474   2.6477   2.6582   2.6622
     2.6795   2.6875   2.7316   2.7379   2.7408   2.7669   2.7695   2.7797
     2.7831   2.7843   2.7848   2.7882   2.8031   2.8055   2.8063   2.8191
     2.8218   2.8248   2.8276   2.8453   2.8683   2.8744   2.8746   2.8766
     2.8875   2.8895   2.9049   2.9081   2.9155   2.9171   2.9639   2.9643
     2.9654   2.9656   2.9659   2.9782   2.9865   2.9872   2.9890   2.9945
     2.9978   2.9983   3.0044   3.0047   3.0101   3.0142   3.0220   3.0242
     3.0422   3.0528   3.0531   3.0543   3.0562   3.0600   3.0607   3.0615
     3.0840   3.0922   3.1043   3.1058   3.1092   3.1119   3.1232   3.1259
     3.1773   3.2158   3.2673   3.3414   3.3684   3.3692   3.4578   3.5287
     3.5292   3.7818   3.8272   3.8340   3.8402   3.8749   4.1440   4.3747
     4.5420   4.8019   4.8085   5.0351   5.1250   5.1404   5.1689   5.8974
     5.8983   6.1176   6.2169   6.2712   6.2923   6.2926   6.5125   6.7312
     6.8285   6.9150   6.9670   7.1247   7.1673   7.3311   7.5200   7.7937
     7.8244   7.8393   8.0010   8.0904   8.2801   8.2949   8.3013   8.4264
     8.4675   8.7380   8.7656   8.7674   8.9044   8.9725   9.3103   9.3148
     9.3158   9.4529   9.5696   9.6998   9.8190   9.8243   9.9152   9.9754
    10.0324  10.0534  10.0912  10.1795  10.2687  10.4165  10.4661  10.4726
    10.5518  10.5681  10.6178  10.7060  10.7306  10.7996  10.8174  10.9056
    10.9307  10.9920  11.0056  11.0458  11.1092  11.2731  11.4599  11.4718
    11.5182  11.5327  11.5979  11.6590  11.7388  11.7832  11.9067  11.9709
    12.0695  12.1804  12.2401  12.3240  12.3792  12.4181  12.4887  12.4966
    12.5548  12.6106  12.6880  12.7394  12.8254  12.8397  12.8982  12.9009
    12.9791  13.0584  13.1367  13.1552  13.2086  13.2610  13.3052  13.4070
    13.4218  13.4371

          k = 0.0000-0.5774 0.0000 ( 61408 PWs)   bands (ev):

  -107.7602-107.7548-107.7534-107.7516-107.7506-107.7494-107.7487-107.7485
  -107.7482-107.7474-107.7471-107.7471-107.7468-107.7462-107.7457-107.7454
  -107.7448-107.7446-107.7436-107.7422-107.7415-107.7397-107.7395-107.7386
  -107.7369-107.7367-107.7354-107.7338-107.7327-107.7321-107.7319-107.7304
  -107.7296-107.7295-107.7293-107.7267-107.5550-107.5525-107.5523-107.5419
  -107.5393-107.5392-107.5300-107.5276-107.5275-107.4952-107.4948-107.4925
  -107.4924-107.4902-107.4901-107.4898-107.4895-107.4894 -65.2073 -65.2056
   -65.2033 -65.2021 -65.1993 -65.1983 -65.1974 -65.1970 -65.1958 -65.1957
   -65.1952 -65.1950 -65.1946 -65.1937 -65.1908 -65.1861 -65.1842 -65.1842
   -65.1839 -65.1834 -65.1829 -65.1826 -65.1822 -65.1821 -65.1799 -65.1794
   -65.1789 -65.1779 -65.1729 -65.1718 -65.1713 -65.1710 -65.1704 -65.1696
   -65.1687 -65.1655 -65.1650 -65.1636 -65.1619 -65.1617 -65.1616 -65.1612
   -65.1607 -65.1595 -65.1588 -65.1587 -65.1582 -65.1570 -65.1569 -65.1558
   -65.1544 -65.1542 -65.1538 -65.1535 -65.1535 -65.1530 -65.1517 -65.1512
   -65.1496 -65.1486 -65.1482 -65.1478 -65.1473 -65.1468 -65.1468 -65.1468
   -65.1466 -65.1464 -65.1460 -65.1448 -65.1438 -65.1436 -65.1431 -65.1425
   -65.1422 -65.1419 -65.1406 -65.1399 -65.1395 -65.1394 -65.1393 -65.1386
   -65.1383 -65.1380 -65.1367 -65.1366 -65.1364 -65.1358 -65.1358 -65.1358
   -65.1348 -65.1347 -65.1345 -65.1321 -65.1321 -65.1316 -65.1314 -65.1310
   -65.1286 -65.1285 -65.1280 -65.1277 -65.1262 -65.1253 -65.1247 -65.1238
   -65.1177 -65.1166 -65.0150 -65.0102 -65.0097 -65.0025 -64.9983 -64.9875
   -64.9859 -64.9789 -64.9758 -64.9724 -64.9706 -64.9666 -64.9666 -64.9626
   -64.9605 -64.9590 -64.9588 -64.9586 -64.9584 -64.9570 -64.9535 -64.9525
   -64.9454 -64.9402 -64.9399 -64.9378 -64.9354 -64.9353 -64.9279 -64.9277
   -64.9276 -64.9273 -64.9211 -64.9196 -64.9194 -64.9191 -64.9188 -64.9187
   -64.9166 -64.9163 -64.9079 -64.9076 -64.9072 -64.9056 -64.9055 -64.8671
   -64.8667 -64.8645 -64.8644 -64.8624 -64.8623 -64.8621 -64.8617 -64.8616
   -12.9282 -10.1810 -10.1753  -6.5760  -6.5607  -4.5871  -3.1847  -3.1842
    -2.9756  -2.6696  -2.5939  -2.5910  -2.1053  -2.0181  -1.7157  -1.6744
    -1.6515  -1.6506  -1.1622  -1.1436  -0.9836  -0.6220  -0.5352  -0.4262
    -0.4045  -0.1446  -0.0648  -0.0384   0.1356   0.1457   0.1651   0.1653
     0.1658   0.1668   0.1688   0.2518   0.3155   0.3293   0.3322   0.3423
     0.3444   0.3632   0.3634   0.3640   0.3642   0.4176   0.4178   0.4186
     0.4187   0.5470   0.5805   0.5805   0.5830   0.5830   0.6114   0.6615
     0.7613   0.7614   0.7621   0.7624   0.7704   0.7917   0.7995   0.8101
     0.8106   0.8134   0.8137   0.9344   0.9347   0.9357   0.9359   0.9564
     0.9590   1.0407   1.0496   1.0504   1.0545   1.0548   1.0957   1.0960
     1.1386   1.1390   1.2003   1.2010   1.2057   1.2061   1.2680   1.2692
     1.2985   1.3024   1.3074   1.3103   1.3172   1.3186   1.3394   1.3406
     1.3497   1.3757   1.4175   1.4374   1.4415   1.4645   1.4682   1.4686
     1.4859   1.4911   1.4950   1.4972   1.4972   1.5346   1.5470   1.5549
     1.5556   1.5563   1.5578   1.5812   1.5943   1.6148   1.6259   1.6325
     1.6334   1.6377   1.6378   1.6395   1.6441   1.6892   1.7022   1.7293
     1.7303   1.7319   1.7446   1.7573   1.7760   1.7812   1.7818   1.7829
     1.7836   1.7937   1.7965   1.8447   1.8475   1.8494   1.8516   1.8630
     1.8639   1.8761   1.8960   1.8979   1.9007   1.9139   1.9228   1.9241
     1.9286   1.9293   1.9295   1.9515   1.9524   1.9582   1.9668   1.9826
     1.9854   2.0083   2.0199   2.0210   2.0760   2.0773   2.0868   2.0883
     2.0885   2.0888   2.0925   2.0932   2.0966   2.1063   2.1085   2.1094
     2.1198   2.1312   2.1312   2.1379   2.1381   2.1429   2.1445   2.2122
     2.2178   2.2197   2.2283   2.2938   2.2943   2.2982   2.2985   2.2995
     2.3013   2.3029   2.3140   2.3156   2.3180   2.3310   2.3429   2.3606
     2.3748   2.3753   2.3774   2.3820   2.3973   2.4012   2.4015   2.4025
     2.4038   2.4141   2.4246   2.4265   2.4292   2.4396   2.4400   2.5228
     2.5332   2.5566   2.5579   2.5838   2.5842   2.5859   2.5870   2.6155
     2.6158   2.6234   2.6380   2.6532   2.6572   2.6608   2.6630   2.6756
     2.6821   2.6978   2.6987   2.6997   2.7004   2.7107   2.7130   2.7298
     2.7322   2.7352   2.7426   2.7866   2.7867   2.7897   2.7903   2.8011
     2.8017   2.8205   2.8234   2.8498   2.8515   2.8616   2.8647   2.8859
     2.8860   2.9072   2.9127   2.9210   2.9314   2.9680   2.9694   2.9897
     2.9898   2.9928   2.9935   3.0133   3.0229   3.0231   3.0254   3.0262
     3.0284   3.0321   3.0512   3.0533   3.0537   3.0537   3.0543   3.0696
     3.0712   3.0734   3.0864   3.0893   3.1026   3.1060   3.1162   3.1167
     3.1178   3.1247   3.1300   3.1489   3.1582   3.1705   3.1710   3.1729
     3.1731   3.2546   3.2955   3.7979   3.8362   3.8438   3.8613   4.3318
     4.3819   4.3824   4.3827   4.3831   4.6458   4.6488   4.6504   4.6511
     4.9769   4.9977   5.0393   5.1288   5.1869   5.1918   5.2092   5.2181
     5.2213   5.4884   5.8247   6.0769   6.0971   6.1138   6.1505   6.1846
     6.1869   6.2162   6.2462   6.6222   6.7304   6.9913   7.0976   7.4875
     7.4951   7.4996   7.6908   7.8615   7.9791   8.2562   8.3608   8.4289
     8.6172   8.6256   8.6287   8.6661   8.9210   8.9636   8.9919   9.2001
     9.2664   9.2737   9.2862   9.2917   9.4487   9.5945   9.6285   9.7700
     9.8293   9.9250   9.9337   9.9457   9.9844  10.2748  10.3030  10.3898
    10.4250  10.4673  10.5547  10.5751  10.5989  10.8068  10.8624  11.0291
    11.0318  11.1317  11.2627  11.2879  11.3303  11.4026  11.4789  11.4901
    11.5965  11.6603  11.7471  12.0291  12.1395  12.1558  12.3121  12.3190
    12.3315  12.3535  12.4155  12.6032  12.7063  12.8038  12.8783  12.9484
    13.0102  13.0315  13.0883  13.1336  13.1793  13.2607  13.2737  13.2798
    13.3293  13.3354  13.3420  13.3910  13.5813  13.6375  13.7226  13.7306
    13.8075  13.8351

          k = 0.2500-0.7217 0.0000 ( 61343 PWs)   bands (ev):

  -107.7602-107.7548-107.7530-107.7524-107.7497-107.7494-107.7491-107.7484
  -107.7482-107.7479-107.7472-107.7469-107.7466-107.7460-107.7459-107.7454
  -107.7448-107.7446-107.7433-107.7427-107.7412-107.7397-107.7396-107.7386
  -107.7369-107.7367-107.7355-107.7336-107.7327-107.7327-107.7314-107.7303
  -107.7300-107.7294-107.7292-107.7267-107.5550-107.5524-107.5524-107.5419
  -107.5393-107.5392-107.5300-107.5276-107.5275-107.4954-107.4940-107.4937
  -107.4912-107.4907-107.4901-107.4899-107.4895-107.4893 -65.2078 -65.2038
   -65.2022 -65.2018 -65.2008 -65.2005 -65.1997 -65.1984 -65.1971 -65.1951
   -65.1947 -65.1938 -65.1911 -65.1899 -65.1890 -65.1883 -65.1882 -65.1859
   -65.1849 -65.1826 -65.1822 -65.1820 -65.1814 -65.1804 -65.1797 -65.1793
   -65.1783 -65.1776 -65.1755 -65.1745 -65.1718 -65.1698 -65.1695 -65.1685
   -65.1665 -65.1660 -65.1655 -65.1648 -65.1645 -65.1625 -65.1615 -65.1611
   -65.1607 -65.1598 -65.1590 -65.1586 -65.1570 -65.1557 -65.1553 -65.1548
   -65.1545 -65.1544 -65.1541 -65.1531 -65.1526 -65.1520 -65.1513 -65.1511
   -65.1503 -65.1494 -65.1488 -65.1486 -65.1485 -65.1479 -65.1466 -65.1459
   -65.1456 -65.1450 -65.1445 -65.1444 -65.1440 -65.1435 -65.1429 -65.1427
   -65.1425 -65.1419 -65.1413 -65.1407 -65.1404 -65.1395 -65.1394 -65.1387
   -65.1378 -65.1378 -65.1375 -65.1371 -65.1368 -65.1366 -65.1366 -65.1362
   -65.1348 -65.1339 -65.1337 -65.1323 -65.1316 -65.1312 -65.1309 -65.1306
   -65.1301 -65.1298 -65.1279 -65.1271 -65.1267 -65.1259 -65.1225 -65.1206
   -65.1204 -65.1167 -65.0139 -65.0121 -65.0100 -65.0004 -64.9964 -64.9935
   -64.9811 -64.9805 -64.9766 -64.9719 -64.9693 -64.9651 -64.9644 -64.9642
   -64.9640 -64.9621 -64.9615 -64.9573 -64.9549 -64.9543 -64.9511 -64.9508
   -64.9500 -64.9461 -64.9378 -64.9354 -64.9353 -64.9315 -64.9294 -64.9286
   -64.9285 -64.9229 -64.9227 -64.9220 -64.9218 -64.9211 -64.9188 -64.9187
   -64.9153 -64.9108 -64.9107 -64.9079 -64.9067 -64.9056 -64.9055 -64.8673
   -64.8660 -64.8657 -64.8634 -64.8629 -64.8623 -64.8622 -64.8617 -64.8615
   -12.9282 -10.1796 -10.1767  -6.5721  -6.5646  -4.5873  -3.3899  -2.9753
    -2.7905  -2.6694  -2.5845  -2.5836  -2.0951  -2.0581  -2.0134  -1.9932
    -1.8735  -1.2230  -1.1558  -0.9653  -0.6893  -0.5725  -0.5709  -0.2267
    -0.2235  -0.1986  -0.1578  -0.1127  -0.0847   0.0188   0.0190   0.0300
     0.1896   0.1925   0.2135   0.2139   0.2297   0.2797   0.2902   0.2906
     0.3090   0.4078   0.4100   0.4119   0.4127   0.4777   0.4889   0.5481
     0.5517   0.5622   0.5736   0.6031   0.6033   0.6049   0.6225   0.6244
     0.6812   0.6833   0.7169   0.7182   0.7472   0.7473   0.7762   0.7828
     0.7845   0.8445   0.8454   0.8761   0.8959   0.9124   0.9131   0.9795
     0.9879   1.0378   1.0570   1.0585   1.0801   1.0820   1.1422   1.1492
     1.1531   1.1694   1.1700   1.1778   1.2205   1.2450   1.2471   1.2900
     1.2917   1.3094   1.3163   1.3179   1.3226   1.3408   1.3414   1.3894
     1.3960   1.4002   1.4030   1.4078   1.4170   1.4378   1.4396   1.4415
     1.4493   1.4681   1.4745   1.4919   1.4980   1.5018   1.5181   1.5495
     1.5714   1.5758   1.5932   1.5973   1.5981   1.6148   1.6272   1.6396
     1.6465   1.6611   1.6798   1.6893   1.6902   1.6981   1.7139   1.7162
     1.7294   1.7426   1.7489   1.7527   1.7538   1.7881   1.7946   1.7976
     1.7981   1.8076   1.8177   1.8264   1.8286   1.8434   1.8454   1.8564
     1.8593   1.8815   1.8929   1.9099   1.9106   1.9229   1.9292   1.9348
     1.9366   1.9438   1.9494   1.9558   1.9562   1.9608   1.9696   1.9699
     1.9802   1.9905   1.9989   2.0023   2.0229   2.0294   2.0386   2.0432
     2.0574   2.0589   2.0608   2.0623   2.0644   2.0674   2.0698   2.0751
     2.0760   2.0877   2.1399   2.1412   2.2004   2.2027   2.2037   2.2089
     2.2128   2.2171   2.2354   2.2366   2.2603   2.2692   2.2726   2.2838
     2.3016   2.3035   2.3408   2.3415   2.3453   2.3740   2.3750   2.3756
     2.3769   2.3776   2.3801   2.3824   2.3859   2.3955   2.4131   2.4151
     2.4546   2.4559   2.4633   2.4638   2.4705   2.4768   2.4858   2.5075
     2.5129   2.5176   2.5293   2.5476   2.5509   2.5696   2.5797   2.5805
     2.5920   2.5963   2.6232   2.6294   2.6348   2.6434   2.6656   2.6689
     2.6875   2.6918   2.6922   2.7107   2.7151   2.7326   2.7374   2.7400
     2.7414   2.7468   2.7519   2.7547   2.7611   2.7684   2.7820   2.8000
     2.8285   2.8297   2.8310   2.8414   2.8813   2.8826   2.8959   2.9029
     2.9272   2.9392   2.9421   2.9482   2.9495   2.9549   2.9618   2.9917
     2.9947   2.9950   3.0014   3.0035   3.0118   3.0151   3.0171   3.0183
     3.0233   3.0252   3.0266   3.0282   3.0321   3.0440   3.0464   3.0582
     3.0595   3.0706   3.0711   3.0777   3.0840   3.0980   3.1042   3.1114
     3.1125   3.1290   3.1516   3.1537   3.1709   3.1909   3.1922   3.3532
     3.3687   3.4597   3.4601   3.5572   3.5592   3.6819   3.8804   3.8892
     4.2705   4.3027   4.3673   4.3691   4.3847   4.6429   4.7406   4.7647
     4.7741   4.7743   4.9428   5.2129   5.2416   5.2447   5.6957   5.7256
     5.7617   5.8704   5.9757   5.9882   5.9913   6.1283   6.1425   6.2086
     6.2957   6.6426   6.7082   6.7256   6.8901   6.9833   7.0450   7.0760
     7.1124   7.1803   7.2237   7.4433   7.6622   7.7411   7.9652   7.9970
     8.4576   8.5495   8.5534   8.6562   8.7514   8.9316   9.1626   9.1709
     9.2369   9.3366   9.3700   9.5018   9.5313   9.6236   9.7208   9.7544
     9.8153   9.9829  10.0272  10.1298  10.1891  10.3837  10.4226  10.4812
    10.5325  10.6386  10.7803  10.8731  10.9234  11.0153  11.0997  11.2043
    11.2132  11.2645  11.4571  11.5367  11.5489  11.6144  11.6255  11.7194
    11.7639  11.8643  11.9025  11.9370  11.9801  12.0901  12.1238  12.1929
    12.3041  12.3940  12.4687  12.4804  12.5690  12.6099  12.6324  12.6822
    12.7214  12.7962  12.8311  12.8618  12.9510  13.0671  13.1671  13.1763
    13.3171  13.3357  13.3868  13.4374  13.5005  13.5584  13.5942  13.6584
    13.7090  13.7254

          k =-0.2500 0.1443 0.0000 ( 61417 PWs)   bands (ev):

  -107.7603-107.7554-107.7522-107.7513-107.7504-107.7498-107.7491-107.7489
  -107.7481-107.7474-107.7474-107.7466-107.7466-107.7461-107.7460-107.7454
  -107.7453-107.7447-107.7428-107.7421-107.7415-107.7398-107.7398-107.7386
  -107.7368-107.7367-107.7359-107.7332-107.7327-107.7318-107.7317-107.7306
  -107.7303-107.7295-107.7290-107.7267-107.5551-107.5524-107.5523-107.5419
  -107.5393-107.5392-107.5300-107.5276-107.5275-107.4962-107.4933-107.4922
  -107.4921-107.4908-107.4907-107.4902-107.4891-107.4891 -65.2103 -65.2020
   -65.2004 -65.1993 -65.1985 -65.1981 -65.1974 -65.1968 -65.1946 -65.1943
   -65.1930 -65.1928 -65.1916 -65.1912 -65.1870 -65.1864 -65.1855 -65.1840
   -65.1829 -65.1824 -65.1816 -65.1814 -65.1812 -65.1806 -65.1791 -65.1791
   -65.1784 -65.1774 -65.1741 -65.1739 -65.1719 -65.1711 -65.1710 -65.1700
   -65.1698 -65.1688 -65.1685 -65.1676 -65.1661 -65.1659 -65.1639 -65.1638
   -65.1616 -65.1604 -65.1603 -65.1598 -65.1591 -65.1591 -65.1579 -65.1574
   -65.1564 -65.1558 -65.1551 -65.1545 -65.1541 -65.1532 -65.1526 -65.1525
   -65.1512 -65.1507 -65.1501 -65.1501 -65.1496 -65.1492 -65.1488 -65.1471
   -65.1464 -65.1452 -65.1451 -65.1442 -65.1438 -65.1432 -65.1427 -65.1424
   -65.1421 -65.1415 -65.1414 -65.1407 -65.1404 -65.1402 -65.1402 -65.1390
   -65.1387 -65.1376 -65.1372 -65.1362 -65.1358 -65.1356 -65.1351 -65.1348
   -65.1346 -65.1340 -65.1322 -65.1317 -65.1315 -65.1288 -65.1285 -65.1284
   -65.1282 -65.1271 -65.1261 -65.1247 -65.1246 -65.1238 -65.1214 -65.1207
   -65.1176 -65.1145 -65.0115 -65.0083 -65.0078 -65.0003 -64.9961 -64.9907
   -64.9892 -64.9845 -64.9843 -64.9754 -64.9688 -64.9634 -64.9624 -64.9617
   -64.9600 -64.9576 -64.9569 -64.9567 -64.9557 -64.9555 -64.9535 -64.9471
   -64.9445 -64.9438 -64.9436 -64.9381 -64.9379 -64.9378 -64.9354 -64.9353
   -64.9351 -64.9211 -64.9197 -64.9195 -64.9188 -64.9188 -64.9185 -64.9156
   -64.9153 -64.9115 -64.9078 -64.9076 -64.9056 -64.9056 -64.9044 -64.8681
   -64.8653 -64.8644 -64.8642 -64.8630 -64.8628 -64.8624 -64.8613 -64.8613
   -12.9290 -10.1773 -10.1748  -6.5732  -6.5650  -4.6149  -3.8097  -3.1986
    -3.0036  -2.6658  -2.2718  -2.2080  -2.0493  -2.0104  -1.6634  -1.4971
    -1.4951  -1.2380  -1.0238  -1.0139  -0.9125  -0.7877  -0.4391  -0.4386
    -0.3550  -0.3484  -0.2554  -0.2277  -0.1559  -0.1538  -0.1067  -0.0640
    -0.0191   0.0154   0.0208   0.1170   0.1204   0.1206   0.2900   0.3012
     0.3252   0.3906   0.3913   0.5708   0.5811   0.6134   0.6134   0.6327
     0.6495   0.6495   0.6693   0.6706   0.7120   0.7186   0.7203   0.7217
     0.7323   0.7329   0.7746   0.7746   0.8096   0.8098   0.8398   0.8400
     0.8417   0.8906   0.8928   0.9064   0.9064   0.9264   0.9272   0.9392
     0.9395   0.9671   0.9680   1.0154   1.0825   1.0826   1.0837   1.1114
     1.1115   1.1223   1.1249   1.1562   1.1569   1.1957   1.1979   1.1981
     1.2653   1.2654   1.2750   1.2870   1.3069   1.3089   1.3529   1.3551
     1.3647   1.3862   1.3872   1.3952   1.4186   1.4624   1.4691   1.4784
     1.4807   1.4934   1.5088   1.5267   1.5447   1.5606   1.5648   1.5744
     1.5887   1.5934   1.6215   1.6588   1.6600   1.6876   1.6900   1.6962
     1.6987   1.7093   1.7147   1.7271   1.7499   1.7553   1.7599   1.7698
     1.7724   1.7809   1.7880   1.7948   1.8035   1.8084   1.8154   1.8265
     1.8384   1.8456   1.8461   1.8532   1.8581   1.8687   1.8719   1.8769
     1.8794   1.8829   1.8869   1.8885   1.9080   1.9116   1.9185   1.9281
     1.9318   1.9440   1.9452   1.9593   1.9640   1.9701   1.9710   1.9923
     2.0009   2.0028   2.0161   2.0245   2.0247   2.0274   2.0345   2.0398
     2.0550   2.0615   2.0882   2.0933   2.1062   2.1073   2.1105   2.1114
     2.1243   2.1379   2.1393   2.1481   2.1665   2.1680   2.1740   2.1901
     2.2144   2.2179   2.2481   2.2590   2.2631   2.2641   2.2708   2.2732
     2.3234   2.3429   2.3669   2.3672   2.3734   2.3752   2.3899   2.3907
     2.4200   2.4207   2.4319   2.4329   2.4358   2.4387   2.4609   2.4627
     2.4991   2.5041   2.5087   2.5098   2.5169   2.5415   2.5448   2.5471
     2.5486   2.5518   2.5817   2.5946   2.5981   2.6011   2.6037   2.6185
     2.6244   2.6250   2.6427   2.6445   2.6474   2.6477   2.6582   2.6622
     2.6795   2.6875   2.7316   2.7379   2.7408   2.7669   2.7695   2.7797
     2.7831   2.7843   2.7848   2.7882   2.8031   2.8055   2.8063   2.8191
     2.8218   2.8248   2.8276   2.8453   2.8683   2.8744   2.8746   2.8766
     2.8875   2.8895   2.9049   2.9081   2.9155   2.9171   2.9639   2.9643
     2.9654   2.9656   2.9659   2.9782   2.9865   2.9872   2.9890   2.9945
     2.9978   2.9983   3.0044   3.0047   3.0101   3.0142   3.0220   3.0242
     3.0422   3.0528   3.0531   3.0543   3.0562   3.0600   3.0607   3.0615
     3.0840   3.0922   3.1043   3.1058   3.1092   3.1119   3.1232   3.1259
     3.1773   3.2158   3.2673   3.3414   3.3684   3.3692   3.4578   3.5287
     3.5292   3.7818   3.8272   3.8340   3.8402   3.8749   4.1440   4.3747
     4.5420   4.8019   4.8085   5.0351   5.1250   5.1404   5.1689   5.8974
     5.8983   6.1176   6.2169   6.2712   6.2923   6.2926   6.5125   6.7311
     6.8285   6.9151   6.9670   7.1246   7.1674   7.3311   7.5199   7.7937
     7.8244   7.8393   8.0010   8.0904   8.2801   8.2949   8.3013   8.4264
     8.4675   8.7381   8.7656   8.7674   8.9044   8.9724   9.3103   9.3148
     9.3158   9.4529   9.5697   9.6998   9.8190   9.8244   9.9152   9.9754
    10.0324  10.0534  10.0912  10.1795  10.2686  10.4165  10.4661  10.4726
    10.5518  10.5681  10.6178  10.7060  10.7306  10.7995  10.8174  10.9056
    10.9307  10.9920  11.0056  11.0458  11.1093  11.2731  11.4599  11.4719
    11.5182  11.5326  11.5979  11.6590  11.7388  11.7832  11.9067  11.9709
    12.0695  12.1804  12.2401  12.3240  12.3792  12.4181  12.4887  12.4966
    12.5548  12.6107  12.6880  12.7394  12.8254  12.8398  12.8982  12.9009
    12.9792  13.0584  13.1367  13.1552  13.2086  13.2610  13.3052  13.4070
    13.4218  13.4371

          k = 0.2500 0.1443 0.0000 ( 61417 PWs)   bands (ev):

  -107.7603-107.7554-107.7522-107.7513-107.7504-107.7498-107.7491-107.7489
  -107.7481-107.7474-107.7474-107.7466-107.7466-107.7461-107.7460-107.7454
  -107.7453-107.7447-107.7428-107.7421-107.7415-107.7398-107.7398-107.7386
  -107.7368-107.7367-107.7359-107.7332-107.7327-107.7318-107.7317-107.7306
  -107.7303-107.7295-107.7290-107.7267-107.5551-107.5524-107.5523-107.5419
  -107.5393-107.5393-107.5300-107.5276-107.5275-107.4962-107.4933-107.4922
  -107.4921-107.4908-107.4907-107.4902-107.4891-107.4891 -65.2103 -65.2020
   -65.2004 -65.1993 -65.1985 -65.1981 -65.1974 -65.1968 -65.1946 -65.1943
   -65.1930 -65.1928 -65.1916 -65.1912 -65.1870 -65.1864 -65.1855 -65.1840
   -65.1829 -65.1824 -65.1816 -65.1814 -65.1812 -65.1806 -65.1791 -65.1791
   -65.1784 -65.1774 -65.1741 -65.1739 -65.1719 -65.1711 -65.1710 -65.1700
   -65.1698 -65.1688 -65.1685 -65.1676 -65.1661 -65.1659 -65.1639 -65.1638
   -65.1616 -65.1604 -65.1603 -65.1598 -65.1591 -65.1591 -65.1579 -65.1574
   -65.1564 -65.1558 -65.1551 -65.1545 -65.1541 -65.1532 -65.1526 -65.1524
   -65.1512 -65.1507 -65.1501 -65.1501 -65.1496 -65.1492 -65.1488 -65.1471
   -65.1464 -65.1452 -65.1451 -65.1442 -65.1439 -65.1432 -65.1427 -65.1424
   -65.1421 -65.1415 -65.1414 -65.1407 -65.1404 -65.1402 -65.1402 -65.1390
   -65.1387 -65.1376 -65.1372 -65.1362 -65.1358 -65.1356 -65.1351 -65.1348
   -65.1346 -65.1340 -65.1322 -65.1317 -65.1315 -65.1288 -65.1285 -65.1284
   -65.1282 -65.1271 -65.1261 -65.1247 -65.1246 -65.1238 -65.1214 -65.1207
   -65.1176 -65.1145 -65.0115 -65.0083 -65.0078 -65.0003 -64.9961 -64.9907
   -64.9892 -64.9845 -64.9843 -64.9754 -64.9688 -64.9634 -64.9624 -64.9617
   -64.9600 -64.9576 -64.9569 -64.9567 -64.9557 -64.9555 -64.9535 -64.9471
   -64.9445 -64.9438 -64.9436 -64.9381 -64.9379 -64.9378 -64.9354 -64.9353
   -64.9351 -64.9211 -64.9197 -64.9195 -64.9188 -64.9188 -64.9185 -64.9156
   -64.9153 -64.9115 -64.9078 -64.9076 -64.9056 -64.9056 -64.9044 -64.8681
   -64.8653 -64.8644 -64.8642 -64.8630 -64.8628 -64.8624 -64.8613 -64.8613
   -12.9290 -10.1774 -10.1747  -6.5731  -6.5650  -4.6149  -3.8097  -3.1986
    -3.0036  -2.6658  -2.2718  -2.2080  -2.0494  -2.0103  -1.6634  -1.4971
    -1.4951  -1.2380  -1.0238  -1.0139  -0.9125  -0.7877  -0.4391  -0.4386
    -0.3550  -0.3484  -0.2554  -0.2277  -0.1559  -0.1538  -0.1068  -0.0639
    -0.0191   0.0154   0.0208   0.1170   0.1204   0.1206   0.2900   0.3012
     0.3252   0.3906   0.3913   0.5708   0.5811   0.6134   0.6134   0.6327
     0.6495   0.6495   0.6693   0.6706   0.7120   0.7186   0.7203   0.7217
     0.7323   0.7329   0.7746   0.7746   0.8096   0.8098   0.8398   0.8400
     0.8417   0.8906   0.8928   0.9064   0.9064   0.9264   0.9272   0.9392
     0.9395   0.9671   0.9680   1.0154   1.0825   1.0826   1.0837   1.1114
     1.1115   1.1223   1.1249   1.1562   1.1569   1.1957   1.1979   1.1981
     1.2653   1.2654   1.2750   1.2870   1.3069   1.3089   1.3529   1.3551
     1.3647   1.3862   1.3872   1.3952   1.4186   1.4624   1.4691   1.4784
     1.4807   1.4934   1.5088   1.5267   1.5447   1.5606   1.5648   1.5744
     1.5887   1.5934   1.6215   1.6588   1.6600   1.6876   1.6900   1.6962
     1.6987   1.7093   1.7147   1.7271   1.7499   1.7553   1.7599   1.7698
     1.7724   1.7809   1.7880   1.7948   1.8035   1.8084   1.8154   1.8265
     1.8384   1.8456   1.8461   1.8532   1.8581   1.8687   1.8719   1.8769
     1.8794   1.8829   1.8869   1.8885   1.9080   1.9116   1.9185   1.9281
     1.9318   1.9440   1.9452   1.9592   1.9640   1.9701   1.9710   1.9923
     2.0009   2.0028   2.0161   2.0245   2.0247   2.0274   2.0345   2.0398
     2.0550   2.0615   2.0882   2.0933   2.1062   2.1073   2.1105   2.1114
     2.1243   2.1379   2.1393   2.1481   2.1665   2.1680   2.1740   2.1901
     2.2144   2.2179   2.2481   2.2590   2.2631   2.2641   2.2708   2.2732
     2.3234   2.3429   2.3669   2.3672   2.3734   2.3752   2.3899   2.3907
     2.4200   2.4207   2.4319   2.4329   2.4358   2.4387   2.4609   2.4627
     2.4991   2.5041   2.5087   2.5098   2.5169   2.5415   2.5448   2.5471
     2.5486   2.5518   2.5817   2.5946   2.5981   2.6011   2.6037   2.6185
     2.6244   2.6250   2.6427   2.6445   2.6474   2.6477   2.6582   2.6622
     2.6795   2.6875   2.7316   2.7379   2.7408   2.7669   2.7695   2.7797
     2.7831   2.7843   2.7848   2.7882   2.8031   2.8055   2.8063   2.8191
     2.8218   2.8248   2.8276   2.8453   2.8683   2.8744   2.8746   2.8766
     2.8875   2.8895   2.9049   2.9081   2.9155   2.9171   2.9639   2.9643
     2.9654   2.9656   2.9659   2.9782   2.9864   2.9872   2.9890   2.9945
     2.9978   2.9983   3.0044   3.0047   3.0101   3.0142   3.0220   3.0242
     3.0422   3.0528   3.0531   3.0543   3.0562   3.0600   3.0607   3.0615
     3.0840   3.0922   3.1043   3.1058   3.1092   3.1119   3.1232   3.1259
     3.1773   3.2158   3.2673   3.3414   3.3684   3.3692   3.4578   3.5287
     3.5292   3.7818   3.8272   3.8340   3.8402   3.8749   4.1440   4.3747
     4.5420   4.8019   4.8085   5.0351   5.1250   5.1404   5.1689   5.8974
     5.8983   6.1176   6.2169   6.2712   6.2923   6.2926   6.5125   6.7311
     6.8285   6.9151   6.9670   7.1246   7.1674   7.3311   7.5199   7.7937
     7.8244   7.8393   8.0010   8.0904   8.2801   8.2949   8.3013   8.4264
     8.4675   8.7381   8.7656   8.7674   8.9044   8.9724   9.3103   9.3148
     9.3158   9.4529   9.5697   9.6998   9.8190   9.8244   9.9152   9.9754
    10.0324  10.0534  10.0912  10.1795  10.2686  10.4165  10.4661  10.4726
    10.5518  10.5681  10.6178  10.7060  10.7306  10.7995  10.8174  10.9056
    10.9307  10.9920  11.0056  11.0458  11.1092  11.2731  11.4599  11.4719
    11.5182  11.5326  11.5979  11.6590  11.7388  11.7832  11.9067  11.9709
    12.0695  12.1804  12.2401  12.3240  12.3792  12.4181  12.4887  12.4966
    12.5548  12.6107  12.6880  12.7394  12.8254  12.8398  12.8983  12.9009
    12.9792  13.0584  13.1367  13.1552  13.2086  13.2610  13.3052  13.4070
    13.4218  13.4371

          k = 0.5000-0.2887 0.0000 ( 61408 PWs)   bands (ev):

  -107.7602-107.7548-107.7534-107.7516-107.7506-107.7494-107.7487-107.7485
  -107.7482-107.7474-107.7471-107.7471-107.7468-107.7462-107.7457-107.7453
  -107.7448-107.7446-107.7436-107.7422-107.7415-107.7397-107.7396-107.7386
  -107.7369-107.7367-107.7354-107.7338-107.7327-107.7321-107.7319-107.7304
  -107.7296-107.7296-107.7293-107.7267-107.5550-107.5525-107.5523-107.5419
  -107.5393-107.5392-107.5300-107.5276-107.5275-107.4952-107.4948-107.4925
  -107.4924-107.4902-107.4901-107.4898-107.4895-107.4894 -65.2073 -65.2056
   -65.2033 -65.2021 -65.1993 -65.1983 -65.1974 -65.1970 -65.1958 -65.1957
   -65.1952 -65.1950 -65.1946 -65.1937 -65.1908 -65.1861 -65.1842 -65.1842
   -65.1839 -65.1834 -65.1829 -65.1826 -65.1822 -65.1821 -65.1799 -65.1793
   -65.1789 -65.1779 -65.1729 -65.1718 -65.1713 -65.1710 -65.1704 -65.1696
   -65.1687 -65.1655 -65.1650 -65.1636 -65.1619 -65.1617 -65.1616 -65.1612
   -65.1607 -65.1595 -65.1588 -65.1587 -65.1582 -65.1570 -65.1569 -65.1558
   -65.1544 -65.1542 -65.1538 -65.1535 -65.1535 -65.1530 -65.1517 -65.1512
   -65.1496 -65.1486 -65.1482 -65.1478 -65.1473 -65.1468 -65.1468 -65.1468
   -65.1466 -65.1464 -65.1460 -65.1448 -65.1438 -65.1436 -65.1431 -65.1425
   -65.1422 -65.1419 -65.1406 -65.1399 -65.1395 -65.1394 -65.1393 -65.1386
   -65.1383 -65.1380 -65.1367 -65.1366 -65.1364 -65.1358 -65.1358 -65.1358
   -65.1348 -65.1347 -65.1345 -65.1321 -65.1321 -65.1316 -65.1314 -65.1310
   -65.1286 -65.1285 -65.1280 -65.1277 -65.1262 -65.1253 -65.1247 -65.1238
   -65.1177 -65.1166 -65.0150 -65.0102 -65.0097 -65.0025 -64.9983 -64.9875
   -64.9859 -64.9789 -64.9758 -64.9724 -64.9706 -64.9666 -64.9666 -64.9626
   -64.9605 -64.9590 -64.9588 -64.9586 -64.9584 -64.9570 -64.9535 -64.9525
   -64.9454 -64.9402 -64.9399 -64.9378 -64.9354 -64.9353 -64.9279 -64.9277
   -64.9276 -64.9273 -64.9211 -64.9196 -64.9194 -64.9191 -64.9188 -64.9187
   -64.9166 -64.9163 -64.9079 -64.9076 -64.9072 -64.9056 -64.9055 -64.8671
   -64.8667 -64.8645 -64.8644 -64.8624 -64.8623 -64.8621 -64.8617 -64.8616
   -12.9282 -10.1808 -10.1755  -6.5764  -6.5603  -4.5871  -3.1847  -3.1842
    -2.9756  -2.6696  -2.5939  -2.5910  -2.1052  -2.0182  -1.7157  -1.6744
    -1.6515  -1.6506  -1.1622  -1.1436  -0.9836  -0.6220  -0.5352  -0.4262
    -0.4045  -0.1444  -0.0650  -0.0384   0.1356   0.1457   0.1651   0.1653
     0.1658   0.1668   0.1688   0.2518   0.3155   0.3293   0.3322   0.3423
     0.3444   0.3633   0.3634   0.3640   0.3642   0.4176   0.4178   0.4186
     0.4187   0.5470   0.5805   0.5805   0.5830   0.5830   0.6114   0.6615
     0.7613   0.7614   0.7621   0.7624   0.7704   0.7917   0.7995   0.8101
     0.8106   0.8134   0.8137   0.9344   0.9347   0.9358   0.9359   0.9564
     0.9590   1.0407   1.0496   1.0504   1.0545   1.0548   1.0957   1.0960
     1.1386   1.1390   1.2003   1.2010   1.2057   1.2061   1.2680   1.2692
     1.2985   1.3024   1.3074   1.3103   1.3172   1.3186   1.3394   1.3406
     1.3497   1.3757   1.4175   1.4374   1.4415   1.4644   1.4682   1.4686
     1.4859   1.4911   1.4950   1.4972   1.4972   1.5346   1.5470   1.5549
     1.5556   1.5563   1.5578   1.5812   1.5943   1.6148   1.6259   1.6325
     1.6334   1.6377   1.6378   1.6395   1.6441   1.6892   1.7022   1.7293
     1.7303   1.7319   1.7446   1.7573   1.7760   1.7812   1.7818   1.7829
     1.7836   1.7937   1.7965   1.8447   1.8475   1.8494   1.8516   1.8630
     1.8639   1.8761   1.8960   1.8979   1.9007   1.9139   1.9228   1.9241
     1.9286   1.9293   1.9295   1.9515   1.9524   1.9582   1.9668   1.9827
     1.9854   2.0083   2.0199   2.0210   2.0760   2.0773   2.0868   2.0883
     2.0885   2.0888   2.0925   2.0932   2.0966   2.1063   2.1085   2.1094
     2.1198   2.1312   2.1312   2.1379   2.1381   2.1429   2.1445   2.2122
     2.2178   2.2197   2.2283   2.2938   2.2943   2.2982   2.2985   2.2995
     2.3013   2.3029   2.3140   2.3156   2.3180   2.3310   2.3429   2.3606
     2.3748   2.3753   2.3774   2.3820   2.3973   2.4012   2.4015   2.4025
     2.4038   2.4141   2.4246   2.4265   2.4292   2.4396   2.4400   2.5228
     2.5332   2.5566   2.5579   2.5838   2.5842   2.5859   2.5870   2.6155
     2.6158   2.6234   2.6380   2.6532   2.6572   2.6608   2.6630   2.6756
     2.6821   2.6978   2.6987   2.6997   2.7004   2.7107   2.7130   2.7298
     2.7322   2.7352   2.7426   2.7866   2.7867   2.7897   2.7903   2.8011
     2.8017   2.8205   2.8234   2.8498   2.8515   2.8616   2.8647   2.8859
     2.8860   2.9072   2.9127   2.9210   2.9314   2.9680   2.9694   2.9897
     2.9898   2.9928   2.9935   3.0133   3.0229   3.0231   3.0254   3.0262
     3.0284   3.0321   3.0512   3.0533   3.0537   3.0537   3.0543   3.0696
     3.0712   3.0734   3.0864   3.0893   3.1026   3.1060   3.1162   3.1167
     3.1178   3.1247   3.1300   3.1489   3.1582   3.1705   3.1710   3.1729
     3.1731   3.2546   3.2955   3.7979   3.8362   3.8438   3.8613   4.3318
     4.3819   4.3824   4.3827   4.3831   4.6458   4.6488   4.6504   4.6511
     4.9769   4.9977   5.0393   5.1288   5.1869   5.1918   5.2092   5.2181
     5.2213   5.4884   5.8247   6.0769   6.0971   6.1138   6.1504   6.1846
     6.1870   6.2162   6.2462   6.6222   6.7304   6.9914   7.0975   7.4875
     7.4951   7.4996   7.6908   7.8616   7.9790   8.2562   8.3608   8.4288
     8.6172   8.6256   8.6287   8.6661   8.9210   8.9636   8.9919   9.2000
     9.2664   9.2737   9.2862   9.2917   9.4487   9.5946   9.6285   9.7700
     9.8293   9.9250   9.9337   9.9457   9.9845  10.2747  10.3030  10.3899
    10.4250  10.4673  10.5547  10.5751  10.5990  10.8068  10.8623  11.0291
    11.0319  11.1317  11.2626  11.2879  11.3303  11.4026  11.4789  11.4901
    11.5965  11.6603  11.7471  12.0291  12.1395  12.1558  12.3122  12.3190
    12.3315  12.3534  12.4157  12.6031  12.7065  12.8037  12.8783  12.9483
    13.0102  13.0314  13.0883  13.1336  13.1793  13.2607  13.2738  13.2798
    13.3293  13.3354  13.3420  13.3910  13.5814  13.6376  13.7235  13.7306
    13.8076  13.8597

          k =-0.5000-0.2887 0.0000 ( 61408 PWs)   bands (ev):

  -107.7602-107.7548-107.7534-107.7516-107.7506-107.7494-107.7487-107.7485
  -107.7482-107.7474-107.7471-107.7471-107.7468-107.7462-107.7457-107.7453
  -107.7448-107.7446-107.7436-107.7422-107.7415-107.7397-107.7396-107.7386
  -107.7369-107.7367-107.7354-107.7338-107.7327-107.7321-107.7319-107.7304
  -107.7296-107.7296-107.7293-107.7267-107.5550-107.5524-107.5523-107.5419
  -107.5393-107.5392-107.5300-107.5276-107.5275-107.4952-107.4948-107.4925
  -107.4924-107.4902-107.4901-107.4898-107.4895-107.4894 -65.2073 -65.2056
   -65.2033 -65.2021 -65.1993 -65.1983 -65.1974 -65.1970 -65.1958 -65.1957
   -65.1952 -65.1950 -65.1946 -65.1937 -65.1908 -65.1861 -65.1842 -65.1842
   -65.1839 -65.1834 -65.1829 -65.1826 -65.1822 -65.1821 -65.1799 -65.1793
   -65.1789 -65.1779 -65.1729 -65.1718 -65.1713 -65.1710 -65.1704 -65.1696
   -65.1687 -65.1655 -65.1650 -65.1636 -65.1619 -65.1617 -65.1616 -65.1612
   -65.1607 -65.1595 -65.1588 -65.1587 -65.1582 -65.1570 -65.1569 -65.1558
   -65.1544 -65.1542 -65.1538 -65.1535 -65.1535 -65.1530 -65.1517 -65.1512
   -65.1495 -65.1486 -65.1482 -65.1478 -65.1473 -65.1468 -65.1468 -65.1468
   -65.1466 -65.1464 -65.1460 -65.1448 -65.1438 -65.1436 -65.1431 -65.1425
   -65.1422 -65.1419 -65.1406 -65.1399 -65.1395 -65.1394 -65.1393 -65.1386
   -65.1383 -65.1380 -65.1367 -65.1366 -65.1364 -65.1358 -65.1358 -65.1358
   -65.1348 -65.1347 -65.1345 -65.1321 -65.1321 -65.1316 -65.1314 -65.1310
   -65.1286 -65.1285 -65.1280 -65.1277 -65.1262 -65.1253 -65.1247 -65.1238
   -65.1177 -65.1166 -65.0150 -65.0102 -65.0097 -65.0025 -64.9983 -64.9875
   -64.9859 -64.9789 -64.9758 -64.9724 -64.9706 -64.9666 -64.9666 -64.9626
   -64.9605 -64.9590 -64.9588 -64.9586 -64.9584 -64.9570 -64.9535 -64.9525
   -64.9454 -64.9402 -64.9399 -64.9378 -64.9354 -64.9353 -64.9279 -64.9277
   -64.9276 -64.9273 -64.9211 -64.9196 -64.9194 -64.9191 -64.9188 -64.9187
   -64.9166 -64.9163 -64.9079 -64.9076 -64.9072 -64.9056 -64.9055 -64.8671
   -64.8667 -64.8645 -64.8644 -64.8624 -64.8623 -64.8621 -64.8617 -64.8616
   -12.9282 -10.1808 -10.1755  -6.5764  -6.5604  -4.5871  -3.1847  -3.1842
    -2.9756  -2.6696  -2.5939  -2.5910  -2.1053  -2.0181  -1.7157  -1.6744
    -1.6515  -1.6506  -1.1622  -1.1436  -0.9836  -0.6220  -0.5352  -0.4262
    -0.4045  -0.1445  -0.0649  -0.0384   0.1356   0.1457   0.1651   0.1653
     0.1658   0.1668   0.1688   0.2518   0.3155   0.3293   0.3322   0.3423
     0.3444   0.3633   0.3634   0.3640   0.3642   0.4176   0.4178   0.4187
     0.4187   0.5470   0.5805   0.5805   0.5830   0.5830   0.6114   0.6615
     0.7613   0.7614   0.7621   0.7624   0.7704   0.7917   0.7995   0.8101
     0.8106   0.8134   0.8137   0.9344   0.9347   0.9357   0.9359   0.9564
     0.9590   1.0406   1.0496   1.0504   1.0545   1.0548   1.0957   1.0960
     1.1386   1.1390   1.2003   1.2010   1.2057   1.2061   1.2680   1.2692
     1.2985   1.3024   1.3074   1.3103   1.3172   1.3186   1.3394   1.3406
     1.3497   1.3757   1.4175   1.4374   1.4415   1.4644   1.4682   1.4686
     1.4859   1.4911   1.4950   1.4972   1.4972   1.5346   1.5470   1.5549
     1.5556   1.5563   1.5578   1.5812   1.5943   1.6148   1.6259   1.6325
     1.6334   1.6377   1.6378   1.6395   1.6441   1.6892   1.7022   1.7293
     1.7303   1.7319   1.7446   1.7573   1.7760   1.7812   1.7818   1.7829
     1.7836   1.7937   1.7965   1.8447   1.8475   1.8494   1.8516   1.8630
     1.8639   1.8761   1.8960   1.8979   1.9007   1.9139   1.9228   1.9241
     1.9286   1.9293   1.9295   1.9515   1.9524   1.9582   1.9668   1.9827
     1.9854   2.0083   2.0199   2.0210   2.0760   2.0773   2.0868   2.0883
     2.0885   2.0888   2.0925   2.0932   2.0966   2.1063   2.1085   2.1094
     2.1198   2.1312   2.1312   2.1379   2.1381   2.1429   2.1445   2.2122
     2.2178   2.2197   2.2283   2.2938   2.2943   2.2982   2.2985   2.2995
     2.3013   2.3029   2.3140   2.3156   2.3180   2.3310   2.3429   2.3606
     2.3748   2.3753   2.3774   2.3820   2.3973   2.4012   2.4015   2.4025
     2.4038   2.4141   2.4246   2.4265   2.4292   2.4396   2.4400   2.5228
     2.5332   2.5566   2.5579   2.5838   2.5842   2.5859   2.5870   2.6155
     2.6158   2.6234   2.6380   2.6532   2.6572   2.6608   2.6630   2.6756
     2.6821   2.6978   2.6987   2.6997   2.7004   2.7107   2.7130   2.7298
     2.7322   2.7352   2.7426   2.7866   2.7867   2.7897   2.7903   2.8011
     2.8017   2.8205   2.8234   2.8498   2.8515   2.8616   2.8647   2.8859
     2.8860   2.9072   2.9127   2.9210   2.9314   2.9680   2.9694   2.9897
     2.9898   2.9928   2.9935   3.0133   3.0229   3.0231   3.0254   3.0262
     3.0284   3.0321   3.0512   3.0533   3.0537   3.0537   3.0543   3.0696
     3.0712   3.0734   3.0864   3.0893   3.1026   3.1060   3.1162   3.1167
     3.1178   3.1247   3.1300   3.1489   3.1582   3.1705   3.1710   3.1729
     3.1731   3.2546   3.2955   3.7979   3.8362   3.8438   3.8613   4.3318
     4.3819   4.3824   4.3827   4.3831   4.6458   4.6488   4.6504   4.6511
     4.9769   4.9977   5.0393   5.1288   5.1869   5.1918   5.2092   5.2181
     5.2213   5.4884   5.8247   6.0769   6.0971   6.1138   6.1504   6.1846
     6.1870   6.2162   6.2462   6.6222   6.7304   6.9914   7.0975   7.4875
     7.4951   7.4996   7.6908   7.8616   7.9790   8.2562   8.3608   8.4288
     8.6172   8.6256   8.6287   8.6661   8.9210   8.9636   8.9919   9.2000
     9.2664   9.2737   9.2862   9.2917   9.4487   9.5946   9.6285   9.7700
     9.8293   9.9250   9.9337   9.9457   9.9845  10.2748  10.3030  10.3899
    10.4250  10.4673  10.5547  10.5751  10.5989  10.8068  10.8623  11.0291
    11.0318  11.1317  11.2626  11.2879  11.3304  11.4026  11.4789  11.4901
    11.5965  11.6603  11.7471  12.0291  12.1395  12.1558  12.3121  12.3190
    12.3315  12.3534  12.4157  12.6031  12.7065  12.8037  12.8783  12.9483
    13.0101  13.0314  13.0883  13.1336  13.1793  13.2607  13.2738  13.2798
    13.3293  13.3354  13.3420  13.3910  13.5813  13.6375  13.7234  13.7306
    13.8079  13.8589

          k =-0.2500-0.7217 0.0000 ( 61343 PWs)   bands (ev):

  -107.7602-107.7548-107.7530-107.7524-107.7497-107.7494-107.7491-107.7484
  -107.7482-107.7479-107.7472-107.7469-107.7466-107.7460-107.7459-107.7454
  -107.7448-107.7446-107.7433-107.7427-107.7412-107.7397-107.7396-107.7386
  -107.7369-107.7367-107.7355-107.7336-107.7327-107.7327-107.7314-107.7303
  -107.7300-107.7294-107.7292-107.7267-107.5550-107.5524-107.5524-107.5419
  -107.5393-107.5392-107.5300-107.5276-107.5275-107.4954-107.4940-107.4937
  -107.4912-107.4907-107.4901-107.4899-107.4895-107.4893 -65.2078 -65.2038
   -65.2022 -65.2018 -65.2008 -65.2005 -65.1997 -65.1984 -65.1971 -65.1951
   -65.1947 -65.1938 -65.1911 -65.1899 -65.1890 -65.1883 -65.1882 -65.1859
   -65.1849 -65.1826 -65.1822 -65.1820 -65.1814 -65.1804 -65.1797 -65.1793
   -65.1783 -65.1776 -65.1755 -65.1745 -65.1718 -65.1698 -65.1695 -65.1685
   -65.1665 -65.1660 -65.1655 -65.1648 -65.1645 -65.1625 -65.1615 -65.1611
   -65.1607 -65.1598 -65.1590 -65.1586 -65.1570 -65.1557 -65.1553 -65.1548
   -65.1545 -65.1544 -65.1541 -65.1531 -65.1526 -65.1520 -65.1513 -65.1511
   -65.1503 -65.1494 -65.1488 -65.1486 -65.1485 -65.1479 -65.1466 -65.1459
   -65.1456 -65.1450 -65.1445 -65.1444 -65.1440 -65.1435 -65.1429 -65.1427
   -65.1425 -65.1419 -65.1413 -65.1407 -65.1404 -65.1395 -65.1394 -65.1387
   -65.1378 -65.1378 -65.1375 -65.1371 -65.1368 -65.1366 -65.1366 -65.1362
   -65.1348 -65.1339 -65.1337 -65.1323 -65.1316 -65.1312 -65.1309 -65.1306
   -65.1301 -65.1298 -65.1279 -65.1271 -65.1267 -65.1259 -65.1225 -65.1206
   -65.1204 -65.1167 -65.0139 -65.0121 -65.0100 -65.0004 -64.9964 -64.9935
   -64.9811 -64.9805 -64.9766 -64.9719 -64.9693 -64.9651 -64.9644 -64.9642
   -64.9640 -64.9621 -64.9615 -64.9573 -64.9549 -64.9543 -64.9511 -64.9508
   -64.9500 -64.9461 -64.9378 -64.9354 -64.9353 -64.9315 -64.9294 -64.9286
   -64.9285 -64.9229 -64.9227 -64.9220 -64.9218 -64.9211 -64.9188 -64.9187
   -64.9153 -64.9108 -64.9107 -64.9079 -64.9067 -64.9056 -64.9055 -64.8673
   -64.8660 -64.8657 -64.8634 -64.8629 -64.8623 -64.8622 -64.8617 -64.8615
   -12.9282 -10.1796 -10.1767  -6.5722  -6.5645  -4.5873  -3.3899  -2.9753
    -2.7905  -2.6694  -2.5845  -2.5836  -2.0950  -2.0582  -2.0133  -1.9932
    -1.8735  -1.2230  -1.1558  -0.9653  -0.6893  -0.5725  -0.5709  -0.2266
    -0.2235  -0.1986  -0.1578  -0.1126  -0.0848   0.0188   0.0190   0.0300
     0.1896   0.1925   0.2135   0.2139   0.2297   0.2797   0.2902   0.2906
     0.3090   0.4078   0.4100   0.4119   0.4127   0.4777   0.4889   0.5481
     0.5517   0.5622   0.5736   0.6031   0.6033   0.6049   0.6225   0.6244
     0.6812   0.6833   0.7169   0.7182   0.7472   0.7473   0.7762   0.7828
     0.7845   0.8445   0.8454   0.8761   0.8959   0.9124   0.9131   0.9795
     0.9879   1.0378   1.0570   1.0585   1.0801   1.0820   1.1422   1.1492
     1.1531   1.1694   1.1700   1.1778   1.2205   1.2450   1.2471   1.2900
     1.2917   1.3094   1.3163   1.3179   1.3226   1.3408   1.3414   1.3894
     1.3960   1.4002   1.4030   1.4078   1.4170   1.4378   1.4396   1.4415
     1.4493   1.4681   1.4745   1.4919   1.4980   1.5018   1.5181   1.5495
     1.5714   1.5758   1.5932   1.5973   1.5981   1.6148   1.6272   1.6396
     1.6465   1.6611   1.6798   1.6893   1.6902   1.6981   1.7139   1.7162
     1.7294   1.7426   1.7489   1.7527   1.7538   1.7881   1.7946   1.7976
     1.7981   1.8076   1.8177   1.8264   1.8286   1.8434   1.8454   1.8564
     1.8593   1.8815   1.8929   1.9099   1.9106   1.9229   1.9292   1.9348
     1.9366   1.9438   1.9494   1.9558   1.9562   1.9608   1.9696   1.9699
     1.9802   1.9905   1.9989   2.0023   2.0229   2.0294   2.0386   2.0432
     2.0574   2.0589   2.0608   2.0623   2.0644   2.0674   2.0698   2.0751
     2.0760   2.0877   2.1399   2.1412   2.2004   2.2027   2.2037   2.2089
     2.2128   2.2171   2.2354   2.2366   2.2603   2.2692   2.2726   2.2838
     2.3016   2.3035   2.3408   2.3415   2.3453   2.3740   2.3750   2.3756
     2.3769   2.3776   2.3801   2.3824   2.3859   2.3955   2.4131   2.4151
     2.4546   2.4559   2.4633   2.4638   2.4705   2.4768   2.4858   2.5075
     2.5129   2.5176   2.5293   2.5476   2.5509   2.5696   2.5797   2.5805
     2.5920   2.5963   2.6232   2.6294   2.6348   2.6434   2.6656   2.6689
     2.6875   2.6918   2.6922   2.7107   2.7151   2.7326   2.7374   2.7400
     2.7414   2.7468   2.7519   2.7547   2.7611   2.7684   2.7820   2.8000
     2.8285   2.8297   2.8310   2.8414   2.8813   2.8826   2.8959   2.9029
     2.9272   2.9392   2.9421   2.9482   2.9495   2.9549   2.9618   2.9917
     2.9947   2.9950   3.0014   3.0035   3.0118   3.0151   3.0171   3.0183
     3.0233   3.0252   3.0266   3.0282   3.0321   3.0440   3.0464   3.0582
     3.0595   3.0706   3.0711   3.0777   3.0840   3.0980   3.1042   3.1114
     3.1125   3.1290   3.1516   3.1537   3.1709   3.1909   3.1921   3.3532
     3.3687   3.4597   3.4601   3.5572   3.5592   3.6819   3.8804   3.8892
     4.2705   4.3027   4.3673   4.3691   4.3847   4.6429   4.7406   4.7647
     4.7741   4.7743   4.9428   5.2129   5.2416   5.2447   5.6957   5.7256
     5.7617   5.8704   5.9757   5.9882   5.9913   6.1283   6.1425   6.2086
     6.2957   6.6426   6.7082   6.7256   6.8901   6.9833   7.0450   7.0760
     7.1124   7.1803   7.2237   7.4433   7.6622   7.7411   7.9652   7.9970
     8.4576   8.5495   8.5534   8.6562   8.7514   8.9316   9.1625   9.1709
     9.2369   9.3366   9.3700   9.5018   9.5313   9.6236   9.7208   9.7544
     9.8153   9.9829  10.0272  10.1298  10.1891  10.3837  10.4226  10.4812
    10.5325  10.6386  10.7803  10.8731  10.9234  11.0153  11.0997  11.2043
    11.2132  11.2645  11.4571  11.5367  11.5489  11.6144  11.6255  11.7194
    11.7639  11.8643  11.9025  11.9370  11.9801  12.0901  12.1238  12.1929
    12.3041  12.3940  12.4687  12.4804  12.5690  12.6099  12.6324  12.6822
    12.7214  12.7962  12.8311  12.8618  12.9510  13.0671  13.1671  13.1763
    13.3171  13.3357  13.3868  13.4374  13.5005  13.5584  13.5942  13.6584
    13.7090  13.7254

          k =-0.5000-0.5774 0.0000 ( 61343 PWs)   bands (ev):

  -107.7602-107.7548-107.7530-107.7524-107.7497-107.7494-107.7490-107.7484
  -107.7482-107.7479-107.7472-107.7469-107.7466-107.7460-107.7459-107.7454
  -107.7448-107.7446-107.7433-107.7427-107.7412-107.7397-107.7396-107.7386
  -107.7369-107.7367-107.7355-107.7336-107.7327-107.7327-107.7314-107.7303
  -107.7300-107.7294-107.7292-107.7267-107.5550-107.5524-107.5524-107.5419
  -107.5393-107.5392-107.5300-107.5276-107.5275-107.4954-107.4940-107.4937
  -107.4912-107.4907-107.4901-107.4899-107.4895-107.4893 -65.2078 -65.2038
   -65.2022 -65.2018 -65.2008 -65.2005 -65.1997 -65.1984 -65.1971 -65.1951
   -65.1947 -65.1938 -65.1911 -65.1899 -65.1890 -65.1883 -65.1882 -65.1859
   -65.1849 -65.1826 -65.1822 -65.1820 -65.1814 -65.1804 -65.1797 -65.1793
   -65.1783 -65.1776 -65.1755 -65.1745 -65.1718 -65.1698 -65.1695 -65.1685
   -65.1665 -65.1660 -65.1655 -65.1648 -65.1645 -65.1625 -65.1615 -65.1611
   -65.1607 -65.1598 -65.1590 -65.1586 -65.1570 -65.1557 -65.1553 -65.1548
   -65.1545 -65.1544 -65.1541 -65.1531 -65.1526 -65.1520 -65.1513 -65.1511
   -65.1503 -65.1494 -65.1488 -65.1486 -65.1486 -65.1479 -65.1466 -65.1459
   -65.1456 -65.1450 -65.1445 -65.1444 -65.1440 -65.1435 -65.1429 -65.1427
   -65.1425 -65.1419 -65.1413 -65.1407 -65.1404 -65.1395 -65.1394 -65.1387
   -65.1378 -65.1378 -65.1375 -65.1371 -65.1368 -65.1366 -65.1366 -65.1362
   -65.1349 -65.1339 -65.1337 -65.1323 -65.1316 -65.1312 -65.1309 -65.1306
   -65.1301 -65.1298 -65.1279 -65.1271 -65.1267 -65.1259 -65.1225 -65.1206
   -65.1204 -65.1167 -65.0139 -65.0121 -65.0100 -65.0004 -64.9964 -64.9935
   -64.9811 -64.9805 -64.9766 -64.9719 -64.9694 -64.9651 -64.9644 -64.9642
   -64.9640 -64.9621 -64.9615 -64.9573 -64.9549 -64.9543 -64.9511 -64.9508
   -64.9500 -64.9461 -64.9378 -64.9354 -64.9353 -64.9315 -64.9294 -64.9286
   -64.9285 -64.9229 -64.9227 -64.9220 -64.9218 -64.9211 -64.9188 -64.9187
   -64.9153 -64.9108 -64.9107 -64.9079 -64.9067 -64.9056 -64.9055 -64.8673
   -64.8660 -64.8657 -64.8634 -64.8629 -64.8623 -64.8622 -64.8617 -64.8615
   -12.9282 -10.1794 -10.1769  -6.5726  -6.5642  -4.5873  -3.3899  -2.9753
    -2.7905  -2.6694  -2.5845  -2.5836  -2.0950  -2.0582  -2.0133  -1.9932
    -1.8735  -1.2230  -1.1558  -0.9653  -0.6893  -0.5725  -0.5709  -0.2266
    -0.2235  -0.1986  -0.1578  -0.1125  -0.0849   0.0188   0.0190   0.0300
     0.1896   0.1925   0.2135   0.2139   0.2297   0.2797   0.2902   0.2906
     0.3090   0.4078   0.4100   0.4119   0.4127   0.4777   0.4890   0.5481
     0.5517   0.5622   0.5736   0.6031   0.6033   0.6049   0.6225   0.6244
     0.6812   0.6833   0.7169   0.7182   0.7472   0.7473   0.7762   0.7828
     0.7845   0.8445   0.8454   0.8761   0.8959   0.9124   0.9131   0.9795
     0.9879   1.0378   1.0570   1.0585   1.0801   1.0820   1.1422   1.1492
     1.1531   1.1694   1.1700   1.1778   1.2205   1.2450   1.2471   1.2900
     1.2917   1.3094   1.3163   1.3179   1.3226   1.3408   1.3414   1.3894
     1.3960   1.4002   1.4030   1.4078   1.4170   1.4378   1.4396   1.4415
     1.4493   1.4681   1.4745   1.4919   1.4980   1.5018   1.5181   1.5495
     1.5714   1.5758   1.5932   1.5973   1.5981   1.6148   1.6272   1.6396
     1.6465   1.6611   1.6798   1.6893   1.6902   1.6981   1.7139   1.7162
     1.7294   1.7426   1.7489   1.7527   1.7538   1.7881   1.7946   1.7976
     1.7981   1.8076   1.8177   1.8264   1.8286   1.8434   1.8454   1.8564
     1.8593   1.8815   1.8928   1.9098   1.9106   1.9229   1.9292   1.9348
     1.9366   1.9438   1.9494   1.9558   1.9562   1.9608   1.9696   1.9699
     1.9802   1.9905   1.9989   2.0023   2.0229   2.0294   2.0386   2.0432
     2.0574   2.0589   2.0608   2.0623   2.0644   2.0674   2.0698   2.0751
     2.0760   2.0877   2.1399   2.1413   2.2004   2.2027   2.2037   2.2089
     2.2128   2.2171   2.2354   2.2366   2.2603   2.2692   2.2726   2.2838
     2.3016   2.3035   2.3408   2.3415   2.3453   2.3740   2.3750   2.3756
     2.3769   2.3776   2.3801   2.3824   2.3859   2.3955   2.4131   2.4151
     2.4546   2.4559   2.4633   2.4638   2.4705   2.4768   2.4858   2.5075
     2.5129   2.5176   2.5293   2.5476   2.5509   2.5696   2.5797   2.5805
     2.5920   2.5963   2.6232   2.6294   2.6348   2.6434   2.6656   2.6689
     2.6875   2.6918   2.6922   2.7107   2.7151   2.7326   2.7374   2.7400
     2.7414   2.7468   2.7519   2.7547   2.7611   2.7684   2.7820   2.8000
     2.8285   2.8297   2.8310   2.8414   2.8813   2.8826   2.8959   2.9029
     2.9272   2.9392   2.9421   2.9482   2.9495   2.9549   2.9618   2.9917
     2.9947   2.9950   3.0014   3.0035   3.0118   3.0151   3.0171   3.0183
     3.0233   3.0252   3.0266   3.0282   3.0321   3.0440   3.0464   3.0582
     3.0595   3.0706   3.0711   3.0777   3.0840   3.0980   3.1042   3.1114
     3.1125   3.1290   3.1516   3.1537   3.1709   3.1909   3.1921   3.3532
     3.3687   3.4597   3.4601   3.5572   3.5592   3.6819   3.8804   3.8893
     4.2705   4.3027   4.3673   4.3691   4.3847   4.6429   4.7406   4.7647
     4.7741   4.7743   4.9428   5.2129   5.2416   5.2447   5.6957   5.7255
     5.7617   5.8704   5.9757   5.9882   5.9913   6.1283   6.1425   6.2086
     6.2957   6.6426   6.7081   6.7256   6.8900   6.9833   7.0450   7.0759
     7.1124   7.1803   7.2237   7.4433   7.6622   7.7411   7.9653   7.9971
     8.4575   8.5495   8.5534   8.6562   8.7514   8.9316   9.1625   9.1709
     9.2369   9.3366   9.3700   9.5018   9.5313   9.6236   9.7208   9.7545
     9.8153   9.9829  10.0272  10.1298  10.1891  10.3837  10.4226  10.4812
    10.5325  10.6386  10.7803  10.8731  10.9234  11.0153  11.0997  11.2043
    11.2132  11.2645  11.4572  11.5367  11.5488  11.6145  11.6255  11.7193
    11.7639  11.8643  11.9025  11.9370  11.9800  12.0901  12.1238  12.1930
    12.3042  12.3940  12.4687  12.4804  12.5690  12.6098  12.6325  12.6822
    12.7214  12.7962  12.8310  12.8617  12.9510  13.0671  13.1670  13.1763
    13.3171  13.3357  13.3868  13.4375  13.5005  13.5584  13.5942  13.6584
    13.7090  13.7254

     the Fermi energy is     4.6894 ev

!    total energy              =  -21903.76070750 Ry
     Harris-Foulkes estimate   =  -21903.76070754 Ry
     estimated scf accuracy    <          9.2E-09 Ry

     The total energy is the sum of the following terms:

     one-electron contribution = -208330.11569408 Ry
     hartree contribution      =  104370.36752337 Ry
     xc contribution           =   -2143.24483159 Ry
     ewald contribution        =   84199.28517544 Ry
     smearing contrib. (-TS)   =      -0.05288063 Ry

     convergence has been achieved in  36 iterations
 
     init_run     :     99.63s CPU    101.84s WALL (       1 calls)
     electrons    :  18700.83s CPU  18989.28s WALL (       1 calls)

     Called by init_run:
     wfcinit      :     86.58s CPU     88.20s WALL (       1 calls)
     potinit      :      8.94s CPU      9.12s WALL (       1 calls)
     hinit0       :      1.59s CPU      1.61s WALL (       1 calls)

     Called by electrons:
     c_bands      :  17262.10s CPU  17496.69s WALL (      36 calls)
     sum_band     :   1113.59s CPU   1144.62s WALL (      36 calls)
     v_of_rho     :    266.83s CPU    274.01s WALL (      37 calls)
     newd         :     55.44s CPU     71.42s WALL (      37 calls)
     mix_rho      :      7.46s CPU      7.55s WALL (      36 calls)

     Called by c_bands:
     init_us_2    :     13.38s CPU     13.45s WALL (     730 calls)
     cegterg      :  17157.82s CPU  17388.47s WALL (     360 calls)

     Called by sum_band:
     sum_band:bec :      2.64s CPU      2.65s WALL (     360 calls)
     addusdens    :     30.83s CPU     49.83s WALL (      36 calls)

     Called by *egterg:
     h_psi        :   5360.73s CPU   5431.98s WALL (    1920 calls)
     s_psi        :    358.15s CPU    358.41s WALL (    1920 calls)
     g_psi        :      5.52s CPU      5.53s WALL (    1550 calls)
     cdiaghg      :   8840.75s CPU   8910.92s WALL (    1910 calls)

     Called by h_psi:
     h_psi:pot    :   5351.93s CPU   5407.38s WALL (    1920 calls)
     h_psi:calbec :    619.30s CPU    620.31s WALL (    1920 calls)
     vloc_psi     :   4373.20s CPU   4426.61s WALL (    1920 calls)
     add_vuspsi   :    359.40s CPU    360.45s WALL (    1920 calls)

     General routines
     calbec       :    816.73s CPU    817.95s WALL (    2280 calls)
     fft          :    246.91s CPU    248.22s WALL (    2330 calls)
     ffts         :      3.03s CPU      3.04s WALL (      73 calls)
     fftw         :   5017.98s CPU   5077.99s WALL ( 1447854 calls)
     interpolate  :      4.25s CPU      4.27s WALL (      37 calls)
 
     Parallel routines
     fft_scatt_xy :    209.91s CPU    212.46s WALL ( 1450257 calls)
     fft_scatt_yz :   4238.92s CPU   4286.05s WALL ( 1450257 calls)
 
     PWSCF        :     5h13m CPU       13h 5m WALL

      18h
 
   This run was terminated on:   6:39:24  22Nov2019            

=------------------------------------------------------------------------------=
   JOB DONE.
=------------------------------------------------------------------------------=
