
     Program PWSCF v.6.3MaX starts on 20Nov2019 at  9:10:10 

     This program is part of the open-source Quantum ESPRESSO suite
     for quantum simulation of materials; please cite
         "P. Giannozzi et al., J. Phys.:Condens. Matter 21 395502 (2009);
         "P. Giannozzi et al., J. Phys.:Condens. Matter 29 465901 (2017);
          URL http://www.quantum-espresso.org", 
     in publications or presentations arising from this work. More details at
     http://www.quantum-espresso.org/quote

     Parallel version (MPI), running on    16 processors

     MPI processes distributed on     2 nodes
     R & G space division:  proc/nbgrp/npool/nimage =      16
     Waiting for input...
     Reading input from standard input

     Current dimensions of program PWSCF are:
     Max number of different atomic species (ntypx) = 10
     Max number of k-points (npk) =  40000
     Max angular momentum in pseudopotentials (lmaxx) =  3
     Message from routine iosys:
     minimal I/O required, wf_collect reset to FALSE

     IMPORTANT: XC functional enforced from input :
     Exchange-correlation      = VDW-DF ( 1  4  4  0 1 0)
     Any further DFT definition will be discarded
     Please, verify this is what you really want


     Subspace diagonalization in iterative solution of the eigenvalue problem:
     one sub-group per band group will be used
     scalapack distributed-memory algorithm (size of sub-group:  2*  2 procs)

 
     Parallelization info
     --------------------
     sticks:   dense  smooth     PW     G-vecs:    dense   smooth      PW
     Min         565     189     51               159513    30701    4383
     Max         566     190     52               159526    30710    4400
     Sum        9055    3037    823              2552337   491295   70261
 


     bravais-lattice index     =            0
     lattice parameter (alat)  =      14.8058  a.u.
     unit-cell volume          =   10282.4791 (a.u.)^3
     number of atoms/cell      =           66
     number of atomic types    =            3
     number of electrons       =      1056.00
     number of Kohn-Sham states=          634
     kinetic-energy cutoff     =      50.0000  Ry
     charge density cutoff     =     600.0000  Ry
     convergence threshold     =      1.0E-08
     mixing beta               =       0.3000
     number of iterations used =            8  plain     mixing
     Exchange-correlation      = VDW-DF ( 1  4  4  0 1 0)

     celldm(1)=  14.805786  celldm(2)=   0.000000  celldm(3)=   0.000000
     celldm(4)=   0.000000  celldm(5)=   0.000000  celldm(6)=   0.000000

     crystal axes: (cart. coord. in units of alat)
               a(1) = (   1.000000   0.000000   0.000000 )  
               a(2) = (   0.500000   0.866025   0.000000 )  
               a(3) = (   0.000000   0.000000   3.658245 )  

     reciprocal axes: (cart. coord. in units 2 pi/alat)
               b(1) = (  1.000000 -0.577350  0.000000 )  
               b(2) = (  0.000000  1.154701  0.000000 )  
               b(3) = (  0.000000  0.000000  0.273355 )  


     PseudoPot. # 1 for Cu read from file:
     /deac/thonhauserGrp/chakrad/calculations/atomandmolecule-qe6.2.1-i2012-C6modif/all_pbe_UPF_v1.5/cu_pbe_v1.2.uspp.F.UPF
     MD5 check sum: 6e991ff952a84172a2a52a1c1e996048
     Pseudo is Ultrasoft + core correction, Zval = 19.0
     Generated by new atomic code, or converted to UPF format
     Using radial grid of  867 points,  6 beta functions with: 
                l(1) =   0
                l(2) =   0
                l(3) =   1
                l(4) =   1
                l(5) =   2
                l(6) =   2
     Q(r) pseudized with  8 coefficients,  rinner =    1.150   1.150   1.150
                                                       1.150   1.150

     PseudoPot. # 2 for C  read from file:
     /deac/thonhauserGrp/chakrad/calculations/atomandmolecule-qe6.2.1-i2012-C6modif/all_pbe_UPF_v1.5/c_pbe_v1.2.uspp.F.UPF
     MD5 check sum: d1aef80898a10debaa0f26306b886e00
     Pseudo is Ultrasoft + core correction, Zval =  4.0
     Generated by new atomic code, or converted to UPF format
     Using radial grid of  721 points,  4 beta functions with: 
                l(1) =   0
                l(2) =   0
                l(3) =   1
                l(4) =   1
     Q(r) pseudized with  8 coefficients,  rinner =    1.100   1.100   1.100


     PseudoPot. # 3 for H  read from file:
     /deac/thonhauserGrp/chakrad/calculations/atomandmolecule-qe6.2.1-i2012-C6modif/all_pbe_UPF_v1.5/h_pbe_v1.4.uspp.F.UPF
     MD5 check sum: 761ae9a214b05c3daf00ab9f6b793d6f
     Pseudo is Ultrasoft, Zval =  1.0
     Generated by new atomic code, or converted to UPF format
     Using radial grid of  615 points,  2 beta functions with: 
                l(1) =   0
                l(2) =   0
     Q(r) pseudized with  8 coefficients,  rinner =    0.700

     vdW kernel table read from file vdW_kernel_table
     MD5 check sum: cc9485f6209b1096fbef62427c856dab

     atomic species   valence    mass     pseudopotential
        Cu            19.00     1.00000     Cu( 1.00)
        C              4.00     1.00000     C ( 1.00)
        H              1.00     1.00000     H ( 1.00)

     No symmetry found



   Cartesian axes

     site n.     atom                  positions (alat units)
         1           Cu  tau(   1) = (   0.1666667   0.0962250   0.2552686  )
         2           Cu  tau(   2) = (   0.5000000   0.0962250   0.2552686  )
         3           Cu  tau(   3) = (   0.8333333   0.0962250   0.2552686  )
         4           Cu  tau(   4) = (   0.3333333   0.3849002   0.2552686  )
         5           Cu  tau(   5) = (   0.6666667   0.3849002   0.2552686  )
         6           Cu  tau(   6) = (   1.0000000   0.3849002   0.2552686  )
         7           Cu  tau(   7) = (   0.5000000   0.6735753   0.2552686  )
         8           Cu  tau(   8) = (   0.8333333   0.6735753   0.2552686  )
         9           Cu  tau(   9) = (   1.1666667   0.6735753   0.2552686  )
        10           Cu  tau(  10) = (   0.0000000   0.1924501   0.5274341  )
        11           Cu  tau(  11) = (   0.3333333   0.1924501   0.5274341  )
        12           Cu  tau(  12) = (   0.6666667   0.1924501   0.5274341  )
        13           Cu  tau(  13) = (   0.1666667   0.4811252   0.5274341  )
        14           Cu  tau(  14) = (   0.5000000   0.4811252   0.5274341  )
        15           Cu  tau(  15) = (   0.8333333   0.4811252   0.5274341  )
        16           Cu  tau(  16) = (   0.3333333   0.7698004   0.5274341  )
        17           Cu  tau(  17) = (   0.6666667   0.7698004   0.5274341  )
        18           Cu  tau(  18) = (   1.0000000   0.7698004   0.5274341  )
        19           Cu  tau(  19) = (   0.0000000   0.0000000   0.7995997  )
        20           Cu  tau(  20) = (   0.3333333   0.0000000   0.7995997  )
        21           Cu  tau(  21) = (   0.6666667   0.0000000   0.7995997  )
        22           Cu  tau(  22) = (   0.1666667   0.2886751   0.7995997  )
        23           Cu  tau(  23) = (   0.5000000   0.2886751   0.7995997  )
        24           Cu  tau(  24) = (   0.8333333   0.2886751   0.7995997  )
        25           Cu  tau(  25) = (   0.3333333   0.5773503   0.7995997  )
        26           Cu  tau(  26) = (   0.6666667   0.5773503   0.7995997  )
        27           Cu  tau(  27) = (   1.0000000   0.5773503   0.7995997  )
        28           Cu  tau(  28) = (   0.1666659   0.0962246   1.0691130  )
        29           Cu  tau(  29) = (   0.5000000   0.0962241   1.0691104  )
        30           Cu  tau(  30) = (   0.8333341   0.0962246   1.0691130  )
        31           Cu  tau(  31) = (   0.3333325   0.3849006   1.0691104  )
        32           Cu  tau(  32) = (   0.6666675   0.3849006   1.0691104  )
        33           Cu  tau(  33) = (   1.0000000   0.3849003   1.0691143  )
        34           Cu  tau(  34) = (   0.5000000   0.6735762   1.0691130  )
        35           Cu  tau(  35) = (   0.8333334   0.6735753   1.0691143  )
        36           Cu  tau(  36) = (   1.1666666   0.6735753   1.0691143  )
        37           Cu  tau(  37) = (   0.0000000   0.1924486   1.3387540  )
        38           Cu  tau(  38) = (   0.3333330   0.1924499   1.3387465  )
        39           Cu  tau(  39) = (   0.6666670   0.1924499   1.3387465  )
        40           Cu  tau(  40) = (   0.1666676   0.4811247   1.3387504  )
        41           Cu  tau(  41) = (   0.5000000   0.4811256   1.3387465  )
        42           Cu  tau(  42) = (   0.8333324   0.4811247   1.3387504  )
        43           Cu  tau(  43) = (   0.3333346   0.7698011   1.3387540  )
        44           Cu  tau(  44) = (   0.6666654   0.7698011   1.3387540  )
        45           Cu  tau(  45) = (   1.0000000   0.7698014   1.3387504  )
        46           Cu  tau(  46) = (   0.0000000   0.0000000   1.6083750  )
        47           Cu  tau(  47) = (   0.3333333   0.0000005   1.6083624  )
        48           Cu  tau(  48) = (   0.6666667   0.0000005   1.6083624  )
        49           Cu  tau(  49) = (   0.1666671   0.2886748   1.6083624  )
        50           Cu  tau(  50) = (   0.5000000   0.2886751   1.6083553  )
        51           Cu  tau(  51) = (   0.8333329   0.2886748   1.6083624  )
        52           Cu  tau(  52) = (   0.3333338   0.5773500   1.6083624  )
        53           Cu  tau(  53) = (   0.6666662   0.5773500   1.6083624  )
        54           Cu  tau(  54) = (   1.0000000   0.5773503   1.6083570  )
        55           C   tau(  55) = (   0.6567407   0.3959883   2.0550380  )
        56           C   tau(  56) = (   0.5046394   0.3028152   2.0550379  )
        57           C   tau(  57) = (   0.3478975   0.3879497   2.0550380  )
        58           C   tau(  58) = (   0.3432593   0.5662630   2.0550380  )
        59           C   tau(  59) = (   0.4953606   0.6594361   2.0550379  )
        60           C   tau(  60) = (   0.6521025   0.5743016   2.0550380  )
        61           H   tau(  61) = (   0.7789959   0.3295665   2.0551162  )
        62           H   tau(  62) = (   0.5082587   0.1637263   2.0551162  )
        63           H   tau(  63) = (   0.2292624   0.3152577   2.0551162  )
        64           H   tau(  64) = (   0.2210041   0.6326847   2.0551162  )
        65           H   tau(  65) = (   0.4917413   0.7985249   2.0551162  )
        66           H   tau(  66) = (   0.7707376   0.6469936   2.0551162  )

     number of k points=    10  gaussian smearing, width (Ry)=  0.0200
                       cart. coord. in units 2pi/alat
        k(    1) = (   0.0000000   0.0000000   0.0000000), wk =   0.1250000
        k(    2) = (   0.0000000   0.2886751   0.0000000), wk =   0.2500000
        k(    3) = (   0.0000000  -0.5773503   0.0000000), wk =   0.1250000
        k(    4) = (   0.2500000  -0.7216878   0.0000000), wk =   0.2500000
        k(    5) = (  -0.2500000   0.1443376   0.0000000), wk =   0.2500000
        k(    6) = (   0.2500000   0.1443376   0.0000000), wk =   0.2500000
        k(    7) = (   0.5000000  -0.2886751   0.0000000), wk =   0.1250000
        k(    8) = (  -0.5000000  -0.2886751   0.0000000), wk =   0.1250000
        k(    9) = (  -0.2500000  -0.7216878   0.0000000), wk =   0.2500000
        k(   10) = (  -0.5000000  -0.5773503   0.0000000), wk =   0.2500000

     Dense  grid:  2552337 G-vectors     FFT dimensions: ( 120, 120, 432)

     Smooth grid:   491295 G-vectors     FFT dimensions: (  72,  72, 243)

     Estimated max dynamical RAM per process >       1.14 GB

     Estimated total dynamical RAM >      18.26 GB

     Initial potential from superposition of free atoms
     Check: negative starting charge=   -0.000744

     starting charge 1001.99960, renormalised to 1056.00000

     negative rho (up, down):  7.838E-04 0.000E+00


     %%%%%%%%%%%%%%%%%%%%%%%%%%%%%%%%%%%%%%%%%%%%%%%%%%%%%%%%%%%%%%%%%%%%%%%%
     %                                                                      %
     % You are using vdW-DF, which was implemented by the Thonhauser group. %
     % Please cite the following two papers that made this development      %
     % possible and the two reviews that describe the various versions:     %
     %                                                                      %
     %   T. Thonhauser et al., PRL 115, 136402 (2015).                      %
     %   T. Thonhauser et al., PRB 76, 125112 (2007).                       %
     %   K. Berland et al., Rep. Prog. Phys. 78, 066501 (2015).             %
     %   D.C. Langreth et al., J. Phys.: Condens. Matter 21, 084203 (2009). %
     %                                                                      %
     %                                                                      %
     % If you are calculating the stress with vdW-DF, please also cite:     %
     %                                                                      %
     %   R. Sabatini et al., J. Phys.: Condens. Matter 24, 424209 (2012).   %
     %                                                                      %
     %%%%%%%%%%%%%%%%%%%%%%%%%%%%%%%%%%%%%%%%%%%%%%%%%%%%%%%%%%%%%%%%%%%%%%%%


     Starting wfcs are  732 randomized atomic wfcs

     total cpu time spent up to now is       77.0 secs

     Self-consistent Calculation

     iteration #  1     ecut=    50.00 Ry     beta= 0.30
     Davidson diagonalization with overlap
     ethr =  1.00E-02,  avg # of iterations =  5.4

     negative rho (up, down):  4.783E-04 0.000E+00

     total cpu time spent up to now is     1020.9 secs

     total energy              =  -18988.63187566 Ry
     Harris-Foulkes estimate   =  -22006.37680871 Ry
     estimated scf accuracy    <    5964.92215102 Ry

     iteration #  2     ecut=    50.00 Ry     beta= 0.30
     Davidson diagonalization with overlap
     ethr =  1.00E-02,  avg # of iterations = 19.0

     negative rho (up, down):  5.212E-04 0.000E+00

     total cpu time spent up to now is     3580.3 secs

     total energy              =  -19243.24697699 Ry
     Harris-Foulkes estimate   =  -38858.38408285 Ry
     estimated scf accuracy    <  282110.28314579 Ry

     iteration #  3     ecut=    50.00 Ry     beta= 0.30
     Davidson diagonalization with overlap
     ethr =  1.00E-02,  avg # of iterations =  7.0

     negative rho (up, down):  6.032E-04 0.000E+00

     total cpu time spent up to now is     5021.8 secs

     total energy              =  -21735.87310567 Ry
     Harris-Foulkes estimate   =  -23383.79306909 Ry
     estimated scf accuracy    <   42995.95757280 Ry

     iteration #  4     ecut=    50.00 Ry     beta= 0.30
     Davidson diagonalization with overlap
     ethr =  1.00E-02,  avg # of iterations =  7.0

     negative rho (up, down):  8.246E-04 0.000E+00

     total cpu time spent up to now is     6148.2 secs

     total energy              =  -21737.08507453 Ry
     Harris-Foulkes estimate   =  -22117.96892302 Ry
     estimated scf accuracy    <   10396.26901560 Ry

     iteration #  5     ecut=    50.00 Ry     beta= 0.30
     Davidson diagonalization with overlap
     ethr =  1.00E-02,  avg # of iterations =  6.0

     negative rho (up, down):  8.613E-06 0.000E+00

     total cpu time spent up to now is     7430.3 secs

     total energy              =  -21700.17202221 Ry
     Harris-Foulkes estimate   =  -22161.14958706 Ry
     estimated scf accuracy    <    9561.10099071 Ry

     iteration #  6     ecut=    50.00 Ry     beta= 0.30
     Davidson diagonalization with overlap
     ethr =  1.00E-02,  avg # of iterations =  6.0

     negative rho (up, down):  1.329E-05 0.000E+00

     total cpu time spent up to now is     8471.0 secs

     total energy              =  -21871.98431487 Ry
     Harris-Foulkes estimate   =  -21977.55334363 Ry
     estimated scf accuracy    <    1017.93151818 Ry

     iteration #  7     ecut=    50.00 Ry     beta= 0.30
     Davidson diagonalization with overlap
     ethr =  1.00E-02,  avg # of iterations =  3.3

     negative rho (up, down):  3.812E-05 0.000E+00

     total cpu time spent up to now is     8836.0 secs

     total energy              =  -21912.87939133 Ry
     Harris-Foulkes estimate   =  -21940.48713335 Ry
     estimated scf accuracy    <     956.28075633 Ry

     iteration #  8     ecut=    50.00 Ry     beta= 0.30
     Davidson diagonalization with overlap
     ethr =  1.00E-02,  avg # of iterations =  1.5

     negative rho (up, down):  1.585E-04 0.000E+00

     total cpu time spent up to now is     9087.0 secs

     total energy              =  -21911.48318020 Ry
     Harris-Foulkes estimate   =  -21926.32339248 Ry
     estimated scf accuracy    <     115.22311391 Ry

     iteration #  9     ecut=    50.00 Ry     beta= 0.30
     Davidson diagonalization with overlap
     ethr =  1.00E-02,  avg # of iterations =  2.9

     negative rho (up, down):  2.733E-04 0.000E+00

     total cpu time spent up to now is     9381.4 secs

     total energy              =  -21912.52527203 Ry
     Harris-Foulkes estimate   =  -21917.23822372 Ry
     estimated scf accuracy    <     116.50115855 Ry

     iteration # 10     ecut=    50.00 Ry     beta= 0.30
     Davidson diagonalization with overlap
     ethr =  1.00E-02,  avg # of iterations =  1.1

     negative rho (up, down):  3.218E-02 0.000E+00

     total cpu time spent up to now is     9610.4 secs

     total energy              =  -21896.24714638 Ry
     Harris-Foulkes estimate   =  -21913.23128778 Ry
     estimated scf accuracy    <      72.07823010 Ry

     iteration # 11     ecut=    50.00 Ry     beta= 0.30
     Davidson diagonalization with overlap
     ethr =  6.83E-03,  avg # of iterations =  5.4

     total cpu time spent up to now is    10178.8 secs

     total energy              =  -21880.76919956 Ry
     Harris-Foulkes estimate   =  -21926.06661708 Ry
     estimated scf accuracy    <    1437.35602477 Ry

     iteration # 12     ecut=    50.00 Ry     beta= 0.30
     Davidson diagonalization with overlap
     ethr =  6.83E-03,  avg # of iterations =  3.4

     total cpu time spent up to now is    10509.6 secs

     total energy              =  -21902.14526121 Ry
     Harris-Foulkes estimate   =  -21906.52216224 Ry
     estimated scf accuracy    <      42.02611711 Ry

     iteration # 13     ecut=    50.00 Ry     beta= 0.30
     Davidson diagonalization with overlap
     ethr =  3.98E-03,  avg # of iterations =  2.8

     total cpu time spent up to now is    10811.0 secs

     total energy              =  -21904.03246418 Ry
     Harris-Foulkes estimate   =  -21904.48269966 Ry
     estimated scf accuracy    <      12.78748290 Ry

     iteration # 14     ecut=    50.00 Ry     beta= 0.30
     Davidson diagonalization with overlap
     ethr =  1.21E-03,  avg # of iterations =  3.6

     total cpu time spent up to now is    11117.7 secs

     total energy              =  -21904.07613188 Ry
     Harris-Foulkes estimate   =  -21904.49146888 Ry
     estimated scf accuracy    <       7.87674576 Ry

     iteration # 15     ecut=    50.00 Ry     beta= 0.30
     Davidson diagonalization with overlap
     ethr =  7.46E-04,  avg # of iterations =  6.7

     total cpu time spent up to now is    11512.3 secs

     total energy              =  -21903.93670021 Ry
     Harris-Foulkes estimate   =  -21904.28104148 Ry
     estimated scf accuracy    <       6.13045610 Ry

     iteration # 16     ecut=    50.00 Ry     beta= 0.30
     Davidson diagonalization with overlap
     ethr =  5.81E-04,  avg # of iterations =  5.0

     total cpu time spent up to now is    11851.8 secs

     total energy              =  -21903.91283601 Ry
     Harris-Foulkes estimate   =  -21904.13186403 Ry
     estimated scf accuracy    <       4.84926670 Ry

     iteration # 17     ecut=    50.00 Ry     beta= 0.30
     Davidson diagonalization with overlap
     ethr =  4.59E-04,  avg # of iterations =  1.3

     total cpu time spent up to now is    12069.3 secs

     total energy              =  -21903.88968624 Ry
     Harris-Foulkes estimate   =  -21903.95253882 Ry
     estimated scf accuracy    <       2.05912951 Ry

     iteration # 18     ecut=    50.00 Ry     beta= 0.30
     Davidson diagonalization with overlap
     ethr =  1.95E-04,  avg # of iterations =  7.1

     total cpu time spent up to now is    12466.9 secs

     total energy              =  -21903.84666850 Ry
     Harris-Foulkes estimate   =  -21903.90021946 Ry
     estimated scf accuracy    <       1.56415954 Ry

     iteration # 19     ecut=    50.00 Ry     beta= 0.30
     Davidson diagonalization with overlap
     ethr =  1.48E-04,  avg # of iterations =  4.7

     total cpu time spent up to now is    12808.3 secs

     total energy              =  -21903.82580589 Ry
     Harris-Foulkes estimate   =  -21903.85226667 Ry
     estimated scf accuracy    <       0.85105950 Ry

     iteration # 20     ecut=    50.00 Ry     beta= 0.30
     Davidson diagonalization with overlap
     ethr =  8.06E-05,  avg # of iterations =  5.7

     negative rho (up, down):  3.681E-05 0.000E+00

     total cpu time spent up to now is    13180.3 secs

     total energy              =  -21903.73429656 Ry
     Harris-Foulkes estimate   =  -21903.82817204 Ry
     estimated scf accuracy    <       0.68635344 Ry

     iteration # 21     ecut=    50.00 Ry     beta= 0.30
     Davidson diagonalization with overlap
     ethr =  6.50E-05,  avg # of iterations =  8.1

     negative rho (up, down):  3.135E-06 0.000E+00

     total cpu time spent up to now is    13689.7 secs

     total energy              =  -21903.76389215 Ry
     Harris-Foulkes estimate   =  -21903.77115795 Ry
     estimated scf accuracy    <       0.11476718 Ry

     iteration # 22     ecut=    50.00 Ry     beta= 0.30
     Davidson diagonalization with overlap
     ethr =  1.09E-05,  avg # of iterations =  5.9

     negative rho (up, down):  5.715E-05 0.000E+00

     total cpu time spent up to now is    14072.9 secs

     total energy              =  -21903.76585736 Ry
     Harris-Foulkes estimate   =  -21903.77128651 Ry
     estimated scf accuracy    <       0.10283437 Ry

     iteration # 23     ecut=    50.00 Ry     beta= 0.30
     Davidson diagonalization with overlap
     ethr =  9.74E-06,  avg # of iterations =  5.1

     negative rho (up, down):  2.323E-04 0.000E+00

     total cpu time spent up to now is    14420.6 secs

     total energy              =  -21903.76805008 Ry
     Harris-Foulkes estimate   =  -21903.76867253 Ry
     estimated scf accuracy    <       0.00431918 Ry

     iteration # 24     ecut=    50.00 Ry     beta= 0.30
     Davidson diagonalization with overlap
     ethr =  4.09E-07,  avg # of iterations =  7.0

     negative rho (up, down):  5.566E-04 0.000E+00

     total cpu time spent up to now is    14856.3 secs

     total energy              =  -21903.76843475 Ry
     Harris-Foulkes estimate   =  -21903.76866602 Ry
     estimated scf accuracy    <       0.00228897 Ry

     iteration # 25     ecut=    50.00 Ry     beta= 0.30
     Davidson diagonalization with overlap
     ethr =  2.17E-07,  avg # of iterations =  5.9

     negative rho (up, down):  1.373E-03 0.000E+00

     total cpu time spent up to now is    15240.3 secs

     total energy              =  -21903.76868633 Ry
     Harris-Foulkes estimate   =  -21903.76869199 Ry
     estimated scf accuracy    <       0.00065158 Ry

     iteration # 26     ecut=    50.00 Ry     beta= 0.30
     Davidson diagonalization with overlap
     ethr =  6.17E-08,  avg # of iterations =  6.7

     negative rho (up, down):  1.752E-03 0.000E+00

     total cpu time spent up to now is    15651.5 secs

     total energy              =  -21903.76874021 Ry
     Harris-Foulkes estimate   =  -21903.76875283 Ry
     estimated scf accuracy    <       0.00012921 Ry

     iteration # 27     ecut=    50.00 Ry     beta= 0.30
     Davidson diagonalization with overlap
     ethr =  1.22E-08,  avg # of iterations =  2.0

     negative rho (up, down):  2.200E-03 0.000E+00

     total cpu time spent up to now is    15912.5 secs

     total energy              =  -21903.76875298 Ry
     Harris-Foulkes estimate   =  -21903.76875720 Ry
     estimated scf accuracy    <       0.00005376 Ry

     iteration # 28     ecut=    50.00 Ry     beta= 0.30
     Davidson diagonalization with overlap
     ethr =  5.09E-09,  avg # of iterations =  4.4

     negative rho (up, down):  2.266E-03 0.000E+00

     total cpu time spent up to now is    16241.5 secs

     total energy              =  -21903.76875400 Ry
     Harris-Foulkes estimate   =  -21903.76876222 Ry
     estimated scf accuracy    <       0.00006233 Ry

     iteration # 29     ecut=    50.00 Ry     beta= 0.30
     Davidson diagonalization with overlap
     ethr =  5.09E-09,  avg # of iterations =  2.0

     negative rho (up, down):  2.370E-03 0.000E+00

     total cpu time spent up to now is    16493.5 secs

     total energy              =  -21903.76875778 Ry
     Harris-Foulkes estimate   =  -21903.76875937 Ry
     estimated scf accuracy    <       0.00000581 Ry

     iteration # 30     ecut=    50.00 Ry     beta= 0.30
     Davidson diagonalization with overlap
     ethr =  5.50E-10,  avg # of iterations =  2.0

     negative rho (up, down):  2.400E-03 0.000E+00

     total cpu time spent up to now is    16784.2 secs

     total energy              =  -21903.76875833 Ry
     Harris-Foulkes estimate   =  -21903.76875931 Ry
     estimated scf accuracy    <       0.00000543 Ry

     iteration # 31     ecut=    50.00 Ry     beta= 0.30
     Davidson diagonalization with overlap
     ethr =  5.14E-10,  avg # of iterations =  2.0

     negative rho (up, down):  2.403E-03 0.000E+00

     total cpu time spent up to now is    17037.0 secs

     total energy              =  -21903.76875867 Ry
     Harris-Foulkes estimate   =  -21903.76875911 Ry
     estimated scf accuracy    <       0.00000733 Ry

     iteration # 32     ecut=    50.00 Ry     beta= 0.30
     Davidson diagonalization with overlap
     ethr =  5.14E-10,  avg # of iterations =  1.0

     negative rho (up, down):  2.405E-03 0.000E+00

     total cpu time spent up to now is    17266.7 secs

     total energy              =  -21903.76875900 Ry
     Harris-Foulkes estimate   =  -21903.76875900 Ry
     estimated scf accuracy    <       0.00000113 Ry

     iteration # 33     ecut=    50.00 Ry     beta= 0.30
     Davidson diagonalization with overlap
     ethr =  1.07E-10,  avg # of iterations =  2.0

     negative rho (up, down):  2.418E-03 0.000E+00

     total cpu time spent up to now is    17512.7 secs

     total energy              =  -21903.76875897 Ry
     Harris-Foulkes estimate   =  -21903.76875905 Ry
     estimated scf accuracy    <       0.00000014 Ry

     iteration # 34     ecut=    50.00 Ry     beta= 0.30
     Davidson diagonalization with overlap
     ethr =  1.33E-11,  avg # of iterations =  2.0

     negative rho (up, down):  2.420E-03 0.000E+00

     total cpu time spent up to now is    17784.9 secs

     total energy              =  -21903.76875896 Ry
     Harris-Foulkes estimate   =  -21903.76875900 Ry
     estimated scf accuracy    <       0.00000039 Ry

     iteration # 35     ecut=    50.00 Ry     beta= 0.30
     Davidson diagonalization with overlap
     ethr =  1.33E-11,  avg # of iterations =  2.0

     negative rho (up, down):  2.426E-03 0.000E+00

     total cpu time spent up to now is    18043.8 secs

     total energy              =  -21903.76875892 Ry
     Harris-Foulkes estimate   =  -21903.76875899 Ry
     estimated scf accuracy    <       0.00000023 Ry

     iteration # 36     ecut=    50.00 Ry     beta= 0.30
     Davidson diagonalization with overlap
     ethr =  1.33E-11,  avg # of iterations =  2.0

     negative rho (up, down):  2.431E-03 0.000E+00

     total cpu time spent up to now is    18302.5 secs

     total energy              =  -21903.76875888 Ry
     Harris-Foulkes estimate   =  -21903.76875893 Ry
     estimated scf accuracy    <       0.00000001 Ry

     iteration # 37     ecut=    50.00 Ry     beta= 0.30
     Davidson diagonalization with overlap
     ethr =  1.27E-12,  avg # of iterations =  2.0

     negative rho (up, down):  2.443E-03 0.000E+00

     total cpu time spent up to now is    18567.6 secs

     End of self-consistent calculation

          k = 0.0000 0.0000 0.0000 ( 61453 PWs)   bands (ev):

  -107.8400-107.8363-107.8333-107.8333-107.8333-107.8328-107.8328-107.8323
  -107.8313-107.8297-107.8297-107.8296-107.8296-107.8289-107.8289-107.8285
  -107.8282-107.8281-107.8239-107.8239-107.8239-107.8229-107.8229-107.8229
  -107.8225-107.8205-107.8205-107.8188-107.8150-107.8141-107.8141-107.8141
  -107.8141-107.8132-107.8117-107.8111-107.6064-107.6023-107.6023-107.6015
  -107.6000-107.6000-107.5998-107.5977-107.5977-107.5800-107.5750-107.5750
  -107.5750-107.5748-107.5748-107.5748-107.5723-107.5723 -65.2941 -65.2814
   -65.2806 -65.2806 -65.2801 -65.2801 -65.2794 -65.2732 -65.2730 -65.2730
   -65.2725 -65.2725 -65.2720 -65.2720 -65.2718 -65.2688 -65.2687 -65.2687
   -65.2684 -65.2666 -65.2613 -65.2613 -65.2609 -65.2600 -65.2598 -65.2598
   -65.2583 -65.2582 -65.2582 -65.2578 -65.2578 -65.2571 -65.2570 -65.2570
   -65.2546 -65.2546 -65.2544 -65.2540 -65.2488 -65.2488 -65.2487 -65.2481
   -65.2480 -65.2480 -65.2473 -65.2473 -65.2437 -65.2437 -65.2428 -65.2408
   -65.2408 -65.2404 -65.2404 -65.2403 -65.2403 -65.2400 -65.2374 -65.2334
   -65.2334 -65.2324 -65.2324 -65.2322 -65.2319 -65.2319 -65.2317 -65.2305
   -65.2305 -65.2305 -65.2295 -65.2289 -65.2289 -65.2287 -65.2287 -65.2260
   -65.2260 -65.2226 -65.2222 -65.2222 -65.2221 -65.2220 -65.2220 -65.2216
   -65.2216 -65.2212 -65.2209 -65.2207 -65.2207 -65.2183 -65.2158 -65.2158
   -65.2155 -65.2150 -65.2150 -65.2150 -65.2149 -65.2149 -65.2092 -65.2092
   -65.2077 -65.2077 -65.2076 -65.2072 -65.2069 -65.2069 -65.2033 -65.2033
   -65.1965 -65.1965 -65.0587 -65.0582 -65.0582 -65.0577 -65.0577 -65.0566
   -65.0550 -65.0548 -65.0548 -65.0537 -65.0344 -65.0342 -65.0342 -65.0342
   -65.0341 -65.0341 -65.0317 -65.0317 -65.0314 -65.0311 -65.0235 -65.0228
   -65.0228 -65.0217 -65.0216 -65.0216 -65.0101 -65.0101 -64.9989 -64.9989
   -64.9989 -64.9989 -64.9989 -64.9986 -64.9867 -64.9867 -64.9827 -64.9791
   -64.9791 -64.9782 -64.9767 -64.9767 -64.9762 -64.9744 -64.9743 -64.9520
   -64.9473 -64.9473 -64.9473 -64.9471 -64.9471 -64.9471 -64.9448 -64.9448
   -12.6580  -9.9125  -9.9122  -6.3205  -6.3199  -4.3959  -4.1047  -3.4850
    -2.7991  -2.5363  -2.4073  -1.7572  -1.7571  -1.4145  -1.1397  -1.1391
    -1.1391  -1.1390  -1.1390  -1.1389  -0.7436  -0.7352  -0.7352  -0.7349
    -0.7349  -0.7349  -0.6358  -0.4454  -0.2379  -0.2355  -0.2355  -0.2349
    -0.2349  -0.2348  -0.2200   0.1751   0.1753   0.2147   0.2147   0.2161
     0.2191   0.2191   0.2196   0.5645   0.5646   0.5661   0.5664   0.5664
     0.5682   0.6914   0.6914   0.6918   0.6919   0.6919   0.6925   0.7409
     0.7409   0.7413   0.7414   0.7414   0.7420   0.7699   0.7699   0.7838
     0.7838   0.7944   0.7945   0.8902   0.8902   0.8985   0.8985   0.9180
     0.9180   0.9186   0.9192   0.9192   0.9200   0.9288   0.9288   0.9298
     0.9299   0.9780   0.9780   1.0218   1.0218   1.1273   1.1273   1.1307
     1.1307   1.1320   1.1322   1.1322   1.1333   1.1665   1.1665   1.3655
     1.3655   1.3685   1.3685   1.3686   1.3700   1.4990   1.4990   1.5073
     1.5073   1.5194   1.5194   1.5216   1.5216   1.5220   1.5227   1.5612
     1.5648   1.5649   1.5803   1.6332   1.6332   1.6351   1.6351   1.6353
     1.6357   1.6478   1.6479   1.6740   1.6740   1.7046   1.7105   1.7105
     1.7172   1.7172   1.7212   1.7212   1.7213   1.7221   1.7603   1.7603
     1.7712   1.7712   1.7730   1.7731   1.7731   1.7735   1.7926   1.7927
     1.7927   1.7933   1.7934   1.7934   1.7992   1.7992   1.8151   1.8890
     1.8890   1.9134   1.9134   1.9217   1.9218   1.9219   1.9240   1.9379
     1.9382   1.9382   1.9389   1.9622   1.9622   1.9700   1.9701   1.9934
     1.9934   1.9944   1.9944   1.9945   1.9950   1.9953   1.9953   2.0794
     2.0794   2.1857   2.1857   2.1858   2.1890   2.2418   2.2418   2.2527
     2.2528   2.2528   2.2532   2.2533   2.2533   2.3157   2.3157   2.3170
     2.3186   2.3293   2.3293   2.3331   2.3331   2.3552   2.3553   2.3688
     2.3688   2.3984   2.4213   2.4213   2.4505   2.4505   2.4562   2.4562
     2.4568   2.4598   2.4751   2.4751   2.4833   2.4834   2.4834   2.4837
     2.4837   2.4837   2.4862   2.4862   2.4891   2.4891   2.5579   2.5579
     2.6227   2.6228   2.6228   2.6231   2.6232   2.6232   2.6792   2.6798
     2.6798   2.6815   2.6823   2.6823   2.6823   2.6827   2.6827   2.6827
     2.6882   2.6882   2.7454   2.7454   2.7509   2.7509   2.7509   2.7513
     2.7515   2.7515   2.7624   2.7625   2.7625   2.7628   2.7629   2.7629
     2.7866   2.7866   2.7866   2.7870   2.7870   2.7870   2.8159   2.8159
     2.8284   2.8284   2.8543   2.8550   2.8550   2.8552   2.8552   2.8555
     2.8604   2.8605   2.8816   2.8818   2.8818   2.8820   2.8820   2.8822
     2.9097   2.9097   2.9134   2.9134   2.9142   2.9142   2.9343   2.9344
     2.9486   2.9486   2.9486   2.9491   2.9491   2.9492   2.9741   2.9741
     2.9743   2.9766   2.9766   2.9802   3.0059   3.0059   3.0264   3.0264
     3.0264   3.0270   3.0271   3.0271   3.8514   3.9552   3.9552   3.9566
     3.9752   3.9893   3.9893   4.4440   5.3813   5.3813   5.3888   5.4095
     5.4321   5.4321   7.0169   7.0169   7.0502   7.1578   7.2446   7.2446
     7.2799   7.4650   7.4651   7.8203   7.8203   7.8203   7.8204   7.8362
     7.8362   8.1735   8.2132   8.2132   8.2337   8.2337   8.4862   8.6291
     8.6305   8.7863   8.8755   8.8755   8.8862   8.8870   9.0085   9.0187
     9.0187   9.2485   9.4856   9.5058   9.5058   9.5116   9.5116   9.8125
     9.8127   9.8713   9.8890   9.8912  10.5591  10.5817  10.6613  10.6613
    10.6815  10.6815  10.8341  10.8341  10.8779  10.8780  10.9191  11.0898
    11.1171  11.1171  11.2649  11.3109  11.3110  11.3304  11.3304  11.3474
    11.4638  11.6714  11.6714  11.7987  11.8190  11.8191  11.8630  11.8630
    11.8964  11.8973  11.8973  11.9459  11.9460  12.0296  12.1145  12.2241
    12.2241  12.2482  12.3161  12.3371  12.3371  12.4614  12.4614  12.7189
    12.8974  12.8975  12.8977  12.9994  12.9994  13.0040  13.0189  13.0371
    13.1017  13.1149

          k = 0.0000 0.2887 0.0000 ( 61417 PWs)   bands (ev):

  -107.8395-107.8365-107.8347-107.8339-107.8333-107.8324-107.8318-107.8315
  -107.8310-107.8302-107.8301-107.8295-107.8294-107.8292-107.8289-107.8281
  -107.8281-107.8278-107.8251-107.8242-107.8239-107.8229-107.8226-107.8225
  -107.8219-107.8206-107.8206-107.8184-107.8158-107.8147-107.8146-107.8135
  -107.8133-107.8127-107.8120-107.8112-107.6060-107.6032-107.6024-107.6012
  -107.6005-107.5997-107.5989-107.5979-107.5979-107.5796-107.5766-107.5755
  -107.5755-107.5741-107.5740-107.5736-107.5726-107.5726 -65.2927 -65.2837
   -65.2830 -65.2818 -65.2809 -65.2807 -65.2801 -65.2798 -65.2770 -65.2769
   -65.2759 -65.2759 -65.2743 -65.2741 -65.2696 -65.2683 -65.2681 -65.2662
   -65.2655 -65.2646 -65.2643 -65.2642 -65.2640 -65.2637 -65.2618 -65.2618
   -65.2613 -65.2609 -65.2570 -65.2570 -65.2542 -65.2539 -65.2538 -65.2526
   -65.2525 -65.2518 -65.2512 -65.2511 -65.2491 -65.2490 -65.2467 -65.2467
   -65.2435 -65.2433 -65.2430 -65.2427 -65.2419 -65.2418 -65.2408 -65.2400
   -65.2395 -65.2386 -65.2381 -65.2372 -65.2369 -65.2366 -65.2359 -65.2353
   -65.2350 -65.2334 -65.2331 -65.2330 -65.2327 -65.2327 -65.2325 -65.2301
   -65.2299 -65.2280 -65.2279 -65.2271 -65.2271 -65.2257 -65.2255 -65.2253
   -65.2248 -65.2244 -65.2244 -65.2240 -65.2238 -65.2237 -65.2237 -65.2222
   -65.2220 -65.2205 -65.2202 -65.2196 -65.2190 -65.2184 -65.2184 -65.2180
   -65.2180 -65.2175 -65.2164 -65.2146 -65.2145 -65.2128 -65.2113 -65.2112
   -65.2112 -65.2102 -65.2099 -65.2076 -65.2076 -65.2069 -65.2043 -65.2037
   -65.2006 -65.1975 -65.0693 -65.0639 -65.0637 -65.0624 -65.0620 -65.0506
   -65.0503 -65.0457 -65.0449 -65.0446 -65.0417 -65.0402 -65.0400 -65.0390
   -65.0389 -65.0271 -65.0269 -65.0267 -65.0263 -65.0253 -65.0222 -65.0221
   -65.0213 -65.0212 -65.0184 -65.0182 -65.0143 -65.0111 -65.0029 -65.0028
   -65.0018 -64.9989 -64.9987 -64.9948 -64.9909 -64.9878 -64.9824 -64.9798
   -64.9792 -64.9778 -64.9772 -64.9765 -64.9756 -64.9744 -64.9744 -64.9516
   -64.9488 -64.9478 -64.9478 -64.9464 -64.9464 -64.9460 -64.9450 -64.9450
   -12.6572  -9.9160  -9.9130  -6.3232  -6.3158  -4.3696  -3.8913  -3.2760
    -2.7718  -2.4109  -2.3358  -2.2883  -1.8083  -1.7646  -1.7382  -1.5773
    -1.5769  -1.2282  -1.0948  -1.0933  -0.9433  -0.5877  -0.5209  -0.5204
    -0.4309  -0.4245  -0.3284  -0.3096  -0.2351  -0.2346  -0.0998  -0.0671
    -0.0619   0.0358   0.0397   0.0402   0.1362   0.1774   0.2157   0.2207
     0.2461   0.3118   0.3119   0.4951   0.5008   0.5313   0.5313   0.5560
     0.5673   0.5673   0.5905   0.5907   0.6364   0.6385   0.6400   0.6407
     0.6527   0.6529   0.6933   0.6933   0.7297   0.7297   0.7585   0.7586
     0.7654   0.8095   0.8101   0.8244   0.8244   0.8463   0.8466   0.8591
     0.8591   0.8917   0.8919   0.9341   1.0024   1.0024   1.0076   1.0324
     1.0324   1.0460   1.0466   1.0816   1.0818   1.1172   1.1196   1.1197
     1.1832   1.1832   1.2067   1.2089   1.2296   1.2298   1.2747   1.2751
     1.2912   1.3120   1.3168   1.3174   1.3452   1.3872   1.3877   1.4059
     1.4061   1.4138   1.4479   1.4511   1.4629   1.4862   1.4863   1.4943
     1.5256   1.5260   1.5544   1.5913   1.6056   1.6152   1.6153   1.6275
     1.6279   1.6284   1.6628   1.6666   1.6729   1.6847   1.6849   1.7005
     1.7044   1.7048   1.7226   1.7262   1.7343   1.7440   1.7560   1.7628
     1.7633   1.7709   1.7743   1.7773   1.7801   1.7967   1.7979   1.8016
     1.8016   1.8056   1.8255   1.8295   1.8379   1.8460   1.8504   1.8616
     1.8630   1.8695   1.8709   1.9056   1.9063   1.9174   1.9180   1.9210
     1.9320   1.9330   1.9434   1.9448   1.9466   1.9468   1.9594   1.9750
     1.9834   1.9986   2.0180   2.0207   2.0312   2.0315   2.0433   2.0490
     2.0499   2.0563   2.0607   2.0851   2.0852   2.0991   2.1179   2.1339
     2.1491   2.1528   2.1733   2.1777   2.1832   2.1834   2.2215   2.2263
     2.2454   2.2621   2.2884   2.2906   2.2973   2.2994   2.3096   2.3105
     2.3383   2.3423   2.3512   2.3520   2.3565   2.3578   2.3905   2.3905
     2.4193   2.4245   2.4282   2.4291   2.4368   2.4623   2.4660   2.4680
     2.4711   2.4747   2.5037   2.5145   2.5186   2.5249   2.5255   2.5427
     2.5470   2.5473   2.5644   2.5678   2.5680   2.5682   2.5777   2.5813
     2.6042   2.6137   2.6527   2.6571   2.6619   2.6898   2.6911   2.6998
     2.7026   2.7032   2.7040   2.7076   2.7267   2.7271   2.7288   2.7415
     2.7446   2.7461   2.7498   2.7568   2.7812   2.7957   2.7957   2.7995
     2.8093   2.8098   2.8296   2.8308   2.8373   2.8387   2.8833   2.8836
     2.8836   2.8917   2.8917   2.8967   2.9067   2.9079   2.9143   2.9179
     2.9186   2.9187   2.9254   2.9256   2.9284   2.9342   2.9423   2.9428
     2.9605   2.9727   2.9728   2.9736   2.9754   2.9804   2.9819   2.9821
     3.0041   3.0129   3.0218   3.0247   3.0256   3.0294   3.0424   3.0431
     3.1124   3.1328   3.1747   3.2657   3.2896   3.2898   3.3673   3.4501
     3.4502   3.7036   3.7546   3.7561   3.7601   3.7757   4.0681   4.2667
     4.4504   4.7294   4.7310   4.9467   5.0328   5.0439   5.0798   5.8169
     5.8171   6.0334   6.1783   6.1939   6.2146   6.2151   6.4601   6.6993
     6.7573   6.8860   6.8971   7.2376   7.3038   7.4014   7.4698   7.7150
     7.7487   7.7593   7.9379   8.0039   8.2084   8.2161   8.2738   8.3697
     8.3842   8.6842   8.6862   8.7640   8.8312   8.9369   9.2341   9.2363
     9.3144   9.3963   9.5691   9.6305   9.7692   9.8206   9.9182   9.9474
     9.9834   9.9878  10.0342  10.1046  10.2589  10.3852  10.3869  10.4677
    10.5100  10.5415  10.6062  10.6359  10.7124  10.7585  10.7611  10.8335
    10.9270  10.9379  10.9499  11.0461  11.0957  11.2259  11.4300  11.4468
    11.4738  11.5094  11.5505  11.5809  11.6699  11.7672  11.9130  11.9867
    12.0245  12.1593  12.2178  12.3010  12.3280  12.4158  12.4763  12.5086
    12.5352  12.5690  12.6214  12.6767  12.8225  12.8251  12.8417  12.8725
    12.9464  13.0034  13.1120  13.1293  13.1806  13.2217  13.2281  13.3389
    13.3943  13.4619

          k = 0.0000-0.5774 0.0000 ( 61408 PWs)   bands (ev):

  -107.8386-107.8373-107.8353-107.8342-107.8333-107.8322-107.8315-107.8309
  -107.8306-107.8304-107.8302-107.8301-107.8298-107.8292-107.8285-107.8283
  -107.8279-107.8270-107.8264-107.8243-107.8241-107.8228-107.8221-107.8221
  -107.8218-107.8208-107.8207-107.8177-107.8169-107.8149-107.8148-107.8131
  -107.8125-107.8125-107.8124-107.8113-107.6053-107.6041-107.6025-107.6014
  -107.6004-107.5995-107.5985-107.5980-107.5980-107.5784-107.5782-107.5758
  -107.5757-107.5733-107.5733-107.5732-107.5731-107.5731 -65.2890 -65.2884
   -65.2861 -65.2847 -65.2810 -65.2808 -65.2797 -65.2795 -65.2788 -65.2786
   -65.2780 -65.2778 -65.2776 -65.2770 -65.2736 -65.2673 -65.2669 -65.2667
   -65.2663 -65.2661 -65.2658 -65.2657 -65.2651 -65.2648 -65.2625 -65.2623
   -65.2619 -65.2615 -65.2551 -65.2547 -65.2539 -65.2536 -65.2532 -65.2528
   -65.2516 -65.2480 -65.2480 -65.2455 -65.2444 -65.2443 -65.2443 -65.2440
   -65.2437 -65.2427 -65.2413 -65.2413 -65.2408 -65.2403 -65.2402 -65.2399
   -65.2371 -65.2371 -65.2370 -65.2364 -65.2363 -65.2360 -65.2354 -65.2343
   -65.2317 -65.2312 -65.2308 -65.2305 -65.2305 -65.2299 -65.2298 -65.2297
   -65.2297 -65.2295 -65.2293 -65.2285 -65.2267 -65.2266 -65.2262 -65.2257
   -65.2256 -65.2251 -65.2236 -65.2232 -65.2226 -65.2223 -65.2223 -65.2219
   -65.2211 -65.2210 -65.2206 -65.2198 -65.2193 -65.2191 -65.2190 -65.2185
   -65.2185 -65.2180 -65.2179 -65.2152 -65.2151 -65.2149 -65.2148 -65.2137
   -65.2126 -65.2114 -65.2110 -65.2110 -65.2090 -65.2088 -65.2075 -65.2070
   -65.2004 -65.1998 -65.0734 -65.0661 -65.0659 -65.0651 -65.0646 -65.0499
   -65.0470 -65.0467 -65.0421 -65.0420 -65.0420 -65.0419 -65.0351 -65.0348
   -65.0341 -65.0338 -65.0266 -65.0264 -65.0258 -65.0234 -65.0233 -65.0233
   -65.0226 -65.0148 -65.0135 -65.0110 -65.0109 -65.0109 -65.0108 -65.0029
   -65.0026 -65.0025 -64.9998 -64.9997 -64.9908 -64.9907 -64.9818 -64.9806
   -64.9793 -64.9778 -64.9773 -64.9763 -64.9753 -64.9745 -64.9745 -64.9505
   -64.9504 -64.9480 -64.9480 -64.9458 -64.9457 -64.9456 -64.9455 -64.9454
   -12.6564  -9.9195  -9.9138  -6.3265  -6.3112  -4.3425  -3.2658  -3.2656
    -2.7441  -2.6683  -2.6677  -2.4146  -1.8639  -1.7730  -1.7644  -1.7486
    -1.7330  -1.7314  -1.2248  -1.2230  -0.7626  -0.6967  -0.5380  -0.5019
    -0.4565  -0.1203   0.0622   0.0635   0.0743   0.0836   0.0837   0.0838
     0.0840   0.1022   0.1711   0.1782   0.2422   0.2485   0.2522   0.2576
     0.2628   0.2817   0.2818   0.2818   0.2820   0.3372   0.3374   0.3377
     0.3377   0.4648   0.5016   0.5016   0.5023   0.5024   0.5398   0.5829
     0.6798   0.6798   0.6800   0.6801   0.6930   0.7156   0.7178   0.7328
     0.7328   0.7335   0.7336   0.8536   0.8537   0.8539   0.8540   0.8762
     0.8770   0.9638   0.9758   0.9760   0.9767   0.9767   1.0140   1.0141
     1.0581   1.0582   1.1275   1.1277   1.1283   1.1285   1.1896   1.1897
     1.2195   1.2202   1.2384   1.2388   1.2397   1.2400   1.2584   1.2585
     1.2906   1.2956   1.3444   1.3587   1.3595   1.3867   1.3875   1.4049
     1.4076   1.4159   1.4160   1.4165   1.4165   1.4724   1.4741   1.4770
     1.4773   1.4778   1.4780   1.5280   1.5321   1.5508   1.5519   1.5528
     1.5528   1.5616   1.5625   1.5625   1.6078   1.6214   1.6466   1.6495
     1.6501   1.6590   1.6659   1.7004   1.7006   1.7010   1.7010   1.7011
     1.7104   1.7159   1.7646   1.7650   1.7727   1.7739   1.7855   1.7860
     1.8198   1.8205   1.8207   1.8210   1.8417   1.8443   1.8451   1.8466
     1.8469   1.8716   1.8722   1.8745   1.8749   1.9062   1.9062   1.9278
     1.9377   1.9382   1.9844   1.9950   1.9985   2.0007   2.0060   2.0065
     2.0097   2.0099   2.0160   2.0191   2.0248   2.0267   2.0270   2.0456
     2.0522   2.0526   2.0571   2.0606   2.0608   2.0846   2.0962   2.1328
     2.1407   2.1410   2.1665   2.2225   2.2226   2.2232   2.2242   2.2276
     2.2289   2.2295   2.2370   2.2376   2.2433   2.2567   2.2640   2.2902
     2.3010   2.3016   2.3023   2.3143   2.3225   2.3227   2.3229   2.3241
     2.3242   2.3298   2.3482   2.3485   2.3549   2.3576   2.3582   2.4366
     2.4610   2.4788   2.4791   2.5066   2.5067   2.5073   2.5079   2.5387
     2.5392   2.5435   2.5563   2.5778   2.5791   2.5827   2.5831   2.5934
     2.6052   2.6190   2.6198   2.6199   2.6202   2.6203   2.6332   2.6528
     2.6533   2.6550   2.6583   2.7088   2.7088   2.7098   2.7102   2.7207
     2.7216   2.7454   2.7458   2.7745   2.7750   2.7806   2.7820   2.8072
     2.8072   2.8311   2.8344   2.8396   2.8549   2.8940   2.8958   2.9082
     2.9099   2.9159   2.9162   2.9323   2.9448   2.9449   2.9486   2.9490
     2.9509   2.9522   2.9686   2.9725   2.9726   2.9728   2.9731   2.9904
     2.9908   2.9908   3.0009   3.0042   3.0189   3.0203   3.0381   3.0383
     3.0387   3.0408   3.0465   3.0583   3.0766   3.0895   3.0897   3.0907
     3.0909   3.1912   3.2122   3.7251   3.7452   3.7487   3.7564   4.2557
     4.3012   4.3014   4.3016   4.3017   4.5701   4.5709   4.5717   4.5720
     4.9138   4.9228   4.9436   5.0457   5.0821   5.1229   5.1279   5.1299
     5.1332   5.4142   5.7528   6.0085   6.0296   6.0508   6.0892   6.1090
     6.1120   6.1209   6.1703   6.5642   6.6265   7.1805   7.2746   7.4203
     7.4208   7.4253   7.6109   7.9273   7.9809   8.1569   8.2821   8.4133
     8.5433   8.5476   8.5483   8.5708   8.8929   8.9279   8.9316   9.1860
     9.1948   9.1963   9.2072   9.2454   9.4595   9.6026   9.6598   9.7757
     9.8043   9.8594   9.8804   9.8847   9.9125  10.2710  10.3205  10.3635
    10.4009  10.4322  10.4878  10.4962  10.5182  10.8059  10.8589  11.0212
    11.0845  11.1709  11.2562  11.2725  11.3446  11.3824  11.4351  11.4663
    11.4832  11.5670  11.7150  12.0335  12.1129  12.1376  12.2182  12.2591
    12.2702  12.3063  12.4412  12.5243  12.7537  12.7805  12.8937  12.9587
    12.9737  13.0309  13.0374  13.0922  13.1090  13.2077  13.2180  13.2373
    13.2479  13.2845  13.2983  13.3338  13.4860  13.6122  13.6770  13.6778
    13.7406  13.8327

          k = 0.2500-0.7217 0.0000 ( 61343 PWs)   bands (ev):

  -107.8387-107.8369-107.8357-107.8345-107.8322-107.8322-107.8319-107.8311
  -107.8310-107.8304-107.8301-107.8299-107.8297-107.8289-107.8287-107.8283
  -107.8279-107.8271-107.8258-107.8253-107.8233-107.8228-107.8224-107.8221
  -107.8218-107.8209-107.8206-107.8178-107.8165-107.8159-107.8139-107.8133
  -107.8128-107.8124-107.8123-107.8112-107.6054-107.6038-107.6030-107.6010
  -107.6004-107.5996-107.5985-107.5982-107.5979-107.5787-107.5773-107.5772
  -107.5743-107.5742-107.5733-107.5732-107.5731-107.5728 -65.2900 -65.2856
   -65.2849 -65.2842 -65.2837 -65.2829 -65.2825 -65.2812 -65.2796 -65.2779
   -65.2776 -65.2766 -65.2738 -65.2721 -65.2716 -65.2713 -65.2712 -65.2687
   -65.2662 -65.2651 -65.2650 -65.2649 -65.2645 -65.2631 -65.2628 -65.2620
   -65.2612 -65.2609 -65.2584 -65.2577 -65.2535 -65.2527 -65.2523 -65.2515
   -65.2491 -65.2488 -65.2482 -65.2478 -65.2475 -65.2449 -65.2442 -65.2439
   -65.2431 -65.2424 -65.2419 -65.2415 -65.2406 -65.2382 -65.2379 -65.2377
   -65.2375 -65.2373 -65.2371 -65.2361 -65.2357 -65.2353 -65.2348 -65.2339
   -65.2335 -65.2322 -65.2320 -65.2318 -65.2316 -65.2311 -65.2295 -65.2285
   -65.2282 -65.2281 -65.2277 -65.2275 -65.2268 -65.2266 -65.2263 -65.2260
   -65.2258 -65.2248 -65.2245 -65.2238 -65.2234 -65.2230 -65.2226 -65.2215
   -65.2209 -65.2204 -65.2203 -65.2202 -65.2200 -65.2199 -65.2198 -65.2195
   -65.2179 -65.2175 -65.2171 -65.2154 -65.2150 -65.2144 -65.2141 -65.2141
   -65.2133 -65.2131 -65.2111 -65.2100 -65.2099 -65.2090 -65.2054 -65.2035
   -65.2034 -65.1997 -65.0715 -65.0707 -65.0682 -65.0616 -65.0581 -65.0573
   -65.0477 -65.0476 -65.0448 -65.0384 -65.0382 -65.0366 -65.0353 -65.0350
   -65.0343 -65.0342 -65.0302 -65.0292 -65.0287 -65.0284 -65.0221 -65.0177
   -65.0173 -65.0147 -65.0133 -65.0127 -65.0119 -65.0118 -65.0061 -65.0061
   -65.0053 -65.0052 -64.9987 -64.9941 -64.9940 -64.9900 -64.9819 -64.9804
   -64.9796 -64.9776 -64.9773 -64.9764 -64.9753 -64.9747 -64.9744 -64.9508
   -64.9495 -64.9493 -64.9467 -64.9465 -64.9457 -64.9457 -64.9455 -64.9452
   -12.6564  -9.9181  -9.9152  -6.3226  -6.3151  -4.3428  -3.4712  -2.8669
    -2.7438  -2.6651  -2.6650  -2.4144  -2.0933  -2.0922  -1.9509  -1.8299
    -1.7926  -1.2408  -1.2329  -0.8817  -0.6547  -0.6541  -0.5556  -0.3042
    -0.3034  -0.2626  -0.2372  -0.0632  -0.0631  -0.0534   0.1044   0.1109
     0.1241   0.1314   0.1316   0.1470   0.1601   0.1976   0.2095   0.2096
     0.2270   0.3256   0.3289   0.3319   0.3320   0.4036   0.4095   0.4696
     0.4706   0.4821   0.4931   0.5210   0.5211   0.5237   0.5420   0.5432
     0.6083   0.6088   0.6361   0.6372   0.6674   0.6675   0.6935   0.7022
     0.7026   0.7689   0.7691   0.7970   0.8184   0.8305   0.8308   0.9043
     0.9062   0.9570   0.9765   0.9769   1.0044   1.0047   1.0630   1.0719
     1.0726   1.0881   1.0882   1.1011   1.1404   1.1674   1.1677   1.2105
     1.2110   1.2371   1.2414   1.2426   1.2442   1.2610   1.2610   1.3191
     1.3198   1.3231   1.3235   1.3274   1.3389   1.3567   1.3579   1.3701
     1.3711   1.3980   1.3998   1.4219   1.4221   1.4237   1.4427   1.4684
     1.5089   1.5162   1.5167   1.5172   1.5183   1.5467   1.5652   1.5684
     1.5704   1.6073   1.6081   1.6085   1.6115   1.6180   1.6411   1.6619
     1.6622   1.6778   1.6779   1.7006   1.7057   1.7163   1.7166   1.7251
     1.7261   1.7425   1.7432   1.7602   1.7606   1.7760   1.7837   1.8067
     1.8073   1.8163   1.8280   1.8434   1.8449   1.8453   1.8537   1.8614
     1.8624   1.8734   1.8736   1.8767   1.8878   1.8897   1.8914   1.8916
     1.9138   1.9206   1.9424   1.9490   1.9576   1.9636   1.9694   1.9705
     1.9799   1.9801   1.9805   1.9844   1.9890   1.9892   1.9939   1.9951
     2.0466   2.0484   2.0854   2.0963   2.1233   2.1254   2.1265   2.1309
     2.1392   2.1447   2.1583   2.1584   2.1819   2.1959   2.2001   2.2027
     2.2250   2.2269   2.2612   2.2670   2.2688   2.2943   2.2953   2.2970
     2.2980   2.2997   2.3016   2.3038   2.3073   2.3155   2.3343   2.3368
     2.3803   2.3839   2.3850   2.3873   2.3929   2.3972   2.4042   2.4282
     2.4330   2.4373   2.4515   2.4747   2.4751   2.4948   2.5013   2.5019
     2.5131   2.5162   2.5465   2.5548   2.5595   2.5610   2.5872   2.5884
     2.6098   2.6154   2.6160   2.6344   2.6363   2.6576   2.6588   2.6602
     2.6630   2.6668   2.6783   2.6786   2.6835   2.6903   2.6961   2.7138
     2.7487   2.7537   2.7543   2.7590   2.8049   2.8054   2.8169   2.8200
     2.8488   2.8609   2.8618   2.8678   2.8683   2.8807   2.8845   2.9121
     2.9134   2.9136   2.9226   2.9231   2.9333   2.9358   2.9371   2.9378
     2.9405   2.9462   2.9467   2.9478   2.9506   2.9645   2.9656   2.9796
     2.9804   2.9891   2.9911   2.9914   3.0029   3.0187   3.0236   3.0300
     3.0307   3.0475   3.0771   3.0774   3.0897   3.1106   3.1112   3.2673
     3.2744   3.3789   3.3790   3.4798   3.4805   3.5883   3.8039   3.8079
     4.1859   4.2027   4.2889   4.2895   4.3032   4.5646   4.6713   4.6818
     4.6964   4.6967   4.8332   5.1409   5.1686   5.1697   5.6154   5.6531
     5.6780   5.7397   5.9070   5.9224   5.9241   6.0540   6.0639   6.1447
     6.2208   6.5898   6.6653   6.6688   6.8392   6.9270   6.9835   7.0470
     7.0482   7.2702   7.3114   7.3725   7.5921   7.7677   7.8812   7.9460
     8.4596   8.4735   8.4781   8.5766   8.7325   9.0108   9.1223   9.1493
     9.2140   9.3127   9.3217   9.4628   9.4767   9.6458   9.6554   9.6937
     9.7934   9.8825  10.0113  10.1170  10.1604  10.3488  10.4156  10.4545
    10.5078  10.5979  10.6937  10.8018  10.8445  11.0605  11.0951  11.1726
    11.2422  11.2573  11.4465  11.4713  11.4784  11.5942  11.6161  11.6989
    11.7042  11.8041  11.8520  11.8534  11.9961  12.0929  12.1387  12.1605
    12.2749  12.3637  12.4041  12.4289  12.4943  12.5298  12.5847  12.6139
    12.7081  12.7319  12.8155  12.8803  12.9388  12.9898  13.1498  13.2388
    13.2728  13.3011  13.3730  13.4148  13.4774  13.5212  13.5328  13.6355
    13.6601  13.6853

          k =-0.2500 0.1443 0.0000 ( 61417 PWs)   bands (ev):

  -107.8395-107.8365-107.8347-107.8339-107.8333-107.8324-107.8318-107.8315
  -107.8310-107.8302-107.8301-107.8295-107.8294-107.8292-107.8289-107.8281
  -107.8281-107.8278-107.8251-107.8242-107.8239-107.8229-107.8226-107.8225
  -107.8219-107.8206-107.8206-107.8184-107.8158-107.8147-107.8146-107.8135
  -107.8133-107.8127-107.8120-107.8112-107.6060-107.6032-107.6024-107.6012
  -107.6005-107.5998-107.5989-107.5979-107.5979-107.5796-107.5766-107.5755
  -107.5755-107.5741-107.5740-107.5736-107.5726-107.5726 -65.2927 -65.2837
   -65.2830 -65.2818 -65.2809 -65.2807 -65.2801 -65.2798 -65.2770 -65.2769
   -65.2759 -65.2759 -65.2743 -65.2741 -65.2696 -65.2683 -65.2681 -65.2662
   -65.2655 -65.2646 -65.2643 -65.2642 -65.2640 -65.2637 -65.2618 -65.2618
   -65.2613 -65.2609 -65.2570 -65.2570 -65.2542 -65.2539 -65.2538 -65.2526
   -65.2525 -65.2518 -65.2512 -65.2511 -65.2491 -65.2490 -65.2467 -65.2467
   -65.2435 -65.2433 -65.2430 -65.2427 -65.2419 -65.2418 -65.2408 -65.2400
   -65.2395 -65.2386 -65.2381 -65.2372 -65.2369 -65.2366 -65.2359 -65.2353
   -65.2350 -65.2334 -65.2331 -65.2330 -65.2327 -65.2327 -65.2325 -65.2301
   -65.2299 -65.2280 -65.2279 -65.2271 -65.2271 -65.2257 -65.2255 -65.2253
   -65.2248 -65.2244 -65.2244 -65.2240 -65.2238 -65.2237 -65.2236 -65.2222
   -65.2220 -65.2205 -65.2202 -65.2196 -65.2190 -65.2184 -65.2184 -65.2180
   -65.2180 -65.2175 -65.2164 -65.2146 -65.2145 -65.2128 -65.2113 -65.2112
   -65.2112 -65.2102 -65.2099 -65.2076 -65.2076 -65.2069 -65.2043 -65.2037
   -65.2006 -65.1975 -65.0693 -65.0639 -65.0637 -65.0623 -65.0620 -65.0506
   -65.0503 -65.0457 -65.0449 -65.0446 -65.0417 -65.0402 -65.0400 -65.0390
   -65.0389 -65.0271 -65.0269 -65.0267 -65.0263 -65.0253 -65.0222 -65.0221
   -65.0213 -65.0212 -65.0184 -65.0182 -65.0143 -65.0111 -65.0029 -65.0028
   -65.0018 -64.9989 -64.9987 -64.9948 -64.9909 -64.9878 -64.9824 -64.9798
   -64.9792 -64.9778 -64.9772 -64.9765 -64.9756 -64.9745 -64.9744 -64.9516
   -64.9488 -64.9478 -64.9478 -64.9464 -64.9464 -64.9460 -64.9450 -64.9450
   -12.6572  -9.9158  -9.9132  -6.3237  -6.3154  -4.3696  -3.8913  -3.2760
    -2.7718  -2.4109  -2.3358  -2.2883  -1.8082  -1.7647  -1.7382  -1.5773
    -1.5769  -1.2282  -1.0948  -1.0933  -0.9433  -0.5877  -0.5209  -0.5204
    -0.4309  -0.4245  -0.3284  -0.3096  -0.2351  -0.2346  -0.0998  -0.0671
    -0.0619   0.0358   0.0397   0.0402   0.1364   0.1772   0.2157   0.2207
     0.2461   0.3118   0.3119   0.4951   0.5008   0.5313   0.5313   0.5560
     0.5673   0.5673   0.5905   0.5907   0.6364   0.6385   0.6400   0.6407
     0.6527   0.6529   0.6933   0.6933   0.7297   0.7297   0.7585   0.7586
     0.7654   0.8095   0.8101   0.8244   0.8244   0.8463   0.8466   0.8591
     0.8591   0.8917   0.8919   0.9341   1.0024   1.0024   1.0076   1.0324
     1.0324   1.0460   1.0466   1.0816   1.0818   1.1172   1.1196   1.1197
     1.1832   1.1832   1.2067   1.2089   1.2296   1.2298   1.2747   1.2751
     1.2912   1.3120   1.3168   1.3174   1.3452   1.3872   1.3877   1.4059
     1.4061   1.4138   1.4479   1.4511   1.4629   1.4862   1.4863   1.4943
     1.5256   1.5260   1.5544   1.5913   1.6056   1.6152   1.6153   1.6275
     1.6279   1.6284   1.6628   1.6666   1.6729   1.6847   1.6849   1.7005
     1.7044   1.7048   1.7226   1.7262   1.7343   1.7440   1.7560   1.7628
     1.7633   1.7709   1.7743   1.7773   1.7801   1.7967   1.7979   1.8016
     1.8016   1.8056   1.8255   1.8295   1.8379   1.8459   1.8504   1.8616
     1.8630   1.8695   1.8709   1.9056   1.9063   1.9174   1.9180   1.9210
     1.9320   1.9330   1.9434   1.9448   1.9466   1.9468   1.9594   1.9750
     1.9834   1.9986   2.0180   2.0207   2.0312   2.0315   2.0433   2.0490
     2.0499   2.0563   2.0607   2.0851   2.0852   2.0991   2.1179   2.1339
     2.1491   2.1528   2.1733   2.1777   2.1832   2.1834   2.2216   2.2263
     2.2454   2.2621   2.2884   2.2906   2.2973   2.2994   2.3096   2.3105
     2.3383   2.3423   2.3512   2.3520   2.3565   2.3578   2.3905   2.3905
     2.4193   2.4245   2.4282   2.4291   2.4368   2.4623   2.4660   2.4680
     2.4711   2.4747   2.5037   2.5145   2.5186   2.5249   2.5255   2.5427
     2.5470   2.5473   2.5644   2.5678   2.5680   2.5682   2.5777   2.5813
     2.6042   2.6137   2.6527   2.6571   2.6619   2.6898   2.6911   2.6998
     2.7026   2.7032   2.7040   2.7076   2.7267   2.7271   2.7288   2.7415
     2.7446   2.7461   2.7498   2.7568   2.7812   2.7957   2.7957   2.7995
     2.8093   2.8098   2.8296   2.8308   2.8373   2.8387   2.8833   2.8836
     2.8836   2.8917   2.8917   2.8967   2.9067   2.9079   2.9143   2.9179
     2.9186   2.9187   2.9254   2.9256   2.9284   2.9342   2.9423   2.9428
     2.9605   2.9727   2.9728   2.9736   2.9754   2.9804   2.9819   2.9821
     3.0041   3.0129   3.0218   3.0247   3.0256   3.0294   3.0424   3.0431
     3.1124   3.1328   3.1747   3.2657   3.2896   3.2898   3.3673   3.4501
     3.4502   3.7036   3.7546   3.7561   3.7601   3.7757   4.0681   4.2667
     4.4504   4.7294   4.7310   4.9467   5.0328   5.0439   5.0798   5.8169
     5.8171   6.0334   6.1783   6.1939   6.2146   6.2151   6.4601   6.6993
     6.7573   6.8860   6.8971   7.2375   7.3040   7.4014   7.4697   7.7150
     7.7487   7.7593   7.9379   8.0039   8.2084   8.2161   8.2738   8.3697
     8.3842   8.6842   8.6862   8.7640   8.8312   8.9367   9.2341   9.2363
     9.3144   9.3963   9.5692   9.6305   9.7693   9.8206   9.9182   9.9474
     9.9834   9.9878  10.0342  10.1046  10.2589  10.3852  10.3869  10.4677
    10.5100  10.5416  10.6062  10.6359  10.7124  10.7585  10.7611  10.8335
    10.9270  10.9379  10.9499  11.0461  11.0958  11.2259  11.4300  11.4468
    11.4738  11.5093  11.5505  11.5809  11.6698  11.7672  11.9130  11.9867
    12.0245  12.1593  12.2178  12.3010  12.3280  12.4158  12.4762  12.5086
    12.5352  12.5690  12.6214  12.6767  12.8225  12.8251  12.8417  12.8725
    12.9464  13.0034  13.1120  13.1293  13.1806  13.2217  13.2281  13.3389
    13.3943  13.4619

          k = 0.2500 0.1443 0.0000 ( 61417 PWs)   bands (ev):

  -107.8395-107.8365-107.8347-107.8339-107.8333-107.8324-107.8318-107.8315
  -107.8310-107.8302-107.8301-107.8295-107.8294-107.8292-107.8289-107.8281
  -107.8281-107.8278-107.8251-107.8242-107.8239-107.8229-107.8226-107.8225
  -107.8219-107.8206-107.8206-107.8184-107.8158-107.8147-107.8146-107.8135
  -107.8133-107.8127-107.8120-107.8112-107.6060-107.6032-107.6024-107.6012
  -107.6005-107.5998-107.5989-107.5979-107.5979-107.5796-107.5766-107.5755
  -107.5755-107.5741-107.5740-107.5736-107.5726-107.5726 -65.2927 -65.2837
   -65.2830 -65.2818 -65.2809 -65.2807 -65.2801 -65.2798 -65.2770 -65.2769
   -65.2759 -65.2759 -65.2743 -65.2741 -65.2696 -65.2683 -65.2681 -65.2662
   -65.2655 -65.2646 -65.2643 -65.2642 -65.2640 -65.2637 -65.2618 -65.2618
   -65.2613 -65.2609 -65.2570 -65.2570 -65.2542 -65.2539 -65.2538 -65.2526
   -65.2525 -65.2518 -65.2512 -65.2511 -65.2491 -65.2490 -65.2467 -65.2467
   -65.2435 -65.2433 -65.2430 -65.2427 -65.2419 -65.2418 -65.2408 -65.2400
   -65.2395 -65.2386 -65.2381 -65.2372 -65.2369 -65.2366 -65.2359 -65.2353
   -65.2350 -65.2334 -65.2331 -65.2330 -65.2327 -65.2327 -65.2325 -65.2301
   -65.2299 -65.2280 -65.2279 -65.2271 -65.2271 -65.2257 -65.2255 -65.2253
   -65.2248 -65.2244 -65.2244 -65.2240 -65.2238 -65.2237 -65.2236 -65.2222
   -65.2220 -65.2205 -65.2202 -65.2196 -65.2190 -65.2184 -65.2184 -65.2180
   -65.2180 -65.2175 -65.2164 -65.2146 -65.2145 -65.2128 -65.2113 -65.2112
   -65.2112 -65.2102 -65.2099 -65.2076 -65.2076 -65.2069 -65.2043 -65.2037
   -65.2006 -65.1975 -65.0693 -65.0639 -65.0637 -65.0623 -65.0620 -65.0506
   -65.0503 -65.0457 -65.0449 -65.0446 -65.0417 -65.0402 -65.0400 -65.0390
   -65.0389 -65.0271 -65.0269 -65.0267 -65.0263 -65.0253 -65.0222 -65.0221
   -65.0213 -65.0212 -65.0184 -65.0182 -65.0143 -65.0111 -65.0029 -65.0028
   -65.0018 -64.9989 -64.9987 -64.9948 -64.9909 -64.9878 -64.9824 -64.9798
   -64.9792 -64.9778 -64.9772 -64.9765 -64.9756 -64.9745 -64.9744 -64.9516
   -64.9488 -64.9478 -64.9478 -64.9464 -64.9464 -64.9460 -64.9450 -64.9450
   -12.6572  -9.9158  -9.9132  -6.3236  -6.3155  -4.3696  -3.8913  -3.2760
    -2.7718  -2.4109  -2.3358  -2.2883  -1.8083  -1.7646  -1.7382  -1.5773
    -1.5769  -1.2282  -1.0948  -1.0933  -0.9433  -0.5877  -0.5209  -0.5204
    -0.4309  -0.4245  -0.3284  -0.3096  -0.2351  -0.2346  -0.0998  -0.0671
    -0.0619   0.0358   0.0397   0.0402   0.1363   0.1773   0.2157   0.2207
     0.2461   0.3118   0.3119   0.4951   0.5008   0.5313   0.5313   0.5560
     0.5673   0.5673   0.5905   0.5907   0.6364   0.6385   0.6400   0.6407
     0.6527   0.6529   0.6933   0.6933   0.7297   0.7297   0.7585   0.7586
     0.7654   0.8095   0.8101   0.8244   0.8244   0.8463   0.8466   0.8591
     0.8591   0.8917   0.8919   0.9341   1.0024   1.0024   1.0076   1.0324
     1.0324   1.0460   1.0466   1.0816   1.0818   1.1172   1.1196   1.1197
     1.1832   1.1832   1.2067   1.2089   1.2296   1.2298   1.2747   1.2751
     1.2912   1.3120   1.3168   1.3174   1.3452   1.3872   1.3877   1.4059
     1.4061   1.4138   1.4479   1.4511   1.4629   1.4862   1.4863   1.4943
     1.5256   1.5260   1.5544   1.5913   1.6056   1.6152   1.6153   1.6275
     1.6279   1.6284   1.6628   1.6666   1.6729   1.6847   1.6849   1.7005
     1.7044   1.7048   1.7226   1.7262   1.7343   1.7440   1.7560   1.7628
     1.7633   1.7709   1.7743   1.7773   1.7801   1.7967   1.7979   1.8016
     1.8016   1.8056   1.8255   1.8295   1.8379   1.8460   1.8504   1.8616
     1.8630   1.8695   1.8709   1.9056   1.9063   1.9174   1.9180   1.9210
     1.9320   1.9330   1.9434   1.9448   1.9466   1.9468   1.9594   1.9750
     1.9834   1.9986   2.0180   2.0207   2.0312   2.0315   2.0433   2.0490
     2.0499   2.0563   2.0607   2.0851   2.0852   2.0991   2.1179   2.1339
     2.1491   2.1528   2.1733   2.1777   2.1832   2.1834   2.2216   2.2263
     2.2454   2.2621   2.2884   2.2906   2.2973   2.2994   2.3096   2.3105
     2.3383   2.3423   2.3512   2.3520   2.3565   2.3578   2.3905   2.3905
     2.4193   2.4245   2.4282   2.4291   2.4368   2.4623   2.4660   2.4680
     2.4711   2.4747   2.5037   2.5145   2.5186   2.5249   2.5255   2.5427
     2.5470   2.5473   2.5644   2.5678   2.5680   2.5682   2.5777   2.5813
     2.6042   2.6137   2.6527   2.6571   2.6619   2.6898   2.6911   2.6998
     2.7026   2.7032   2.7040   2.7076   2.7267   2.7271   2.7288   2.7415
     2.7446   2.7461   2.7498   2.7568   2.7812   2.7957   2.7957   2.7995
     2.8093   2.8098   2.8296   2.8308   2.8373   2.8387   2.8833   2.8836
     2.8836   2.8917   2.8917   2.8967   2.9067   2.9079   2.9143   2.9179
     2.9186   2.9187   2.9254   2.9256   2.9284   2.9342   2.9423   2.9428
     2.9605   2.9727   2.9728   2.9736   2.9754   2.9804   2.9819   2.9821
     3.0041   3.0129   3.0218   3.0247   3.0256   3.0294   3.0424   3.0431
     3.1124   3.1328   3.1747   3.2657   3.2896   3.2898   3.3673   3.4501
     3.4502   3.7036   3.7546   3.7561   3.7601   3.7757   4.0681   4.2667
     4.4504   4.7294   4.7310   4.9467   5.0328   5.0439   5.0798   5.8169
     5.8171   6.0334   6.1783   6.1939   6.2146   6.2151   6.4601   6.6993
     6.7573   6.8860   6.8971   7.2375   7.3040   7.4014   7.4697   7.7150
     7.7487   7.7593   7.9379   8.0039   8.2084   8.2161   8.2738   8.3697
     8.3842   8.6842   8.6862   8.7640   8.8312   8.9368   9.2341   9.2363
     9.3144   9.3963   9.5691   9.6305   9.7693   9.8206   9.9182   9.9474
     9.9834   9.9878  10.0342  10.1046  10.2589  10.3852  10.3869  10.4677
    10.5100  10.5415  10.6062  10.6359  10.7124  10.7585  10.7611  10.8335
    10.9270  10.9379  10.9499  11.0461  11.0957  11.2259  11.4300  11.4468
    11.4738  11.5093  11.5505  11.5809  11.6698  11.7672  11.9130  11.9867
    12.0245  12.1593  12.2178  12.3010  12.3280  12.4158  12.4762  12.5086
    12.5352  12.5690  12.6214  12.6767  12.8225  12.8251  12.8417  12.8725
    12.9464  13.0034  13.1120  13.1293  13.1806  13.2217  13.2281  13.3389
    13.3943  13.4619

          k = 0.5000-0.2887 0.0000 ( 61408 PWs)   bands (ev):

  -107.8386-107.8373-107.8353-107.8342-107.8333-107.8322-107.8315-107.8309
  -107.8306-107.8304-107.8302-107.8301-107.8298-107.8292-107.8285-107.8283
  -107.8279-107.8270-107.8264-107.8243-107.8241-107.8228-107.8221-107.8221
  -107.8218-107.8208-107.8207-107.8177-107.8169-107.8149-107.8148-107.8131
  -107.8125-107.8125-107.8124-107.8113-107.6053-107.6041-107.6025-107.6014
  -107.6004-107.5995-107.5985-107.5980-107.5980-107.5784-107.5782-107.5758
  -107.5757-107.5733-107.5733-107.5732-107.5731-107.5731 -65.2890 -65.2884
   -65.2861 -65.2847 -65.2810 -65.2808 -65.2797 -65.2795 -65.2788 -65.2786
   -65.2780 -65.2778 -65.2776 -65.2770 -65.2736 -65.2673 -65.2669 -65.2667
   -65.2663 -65.2661 -65.2658 -65.2657 -65.2651 -65.2648 -65.2625 -65.2623
   -65.2619 -65.2615 -65.2551 -65.2547 -65.2539 -65.2536 -65.2532 -65.2528
   -65.2516 -65.2480 -65.2480 -65.2455 -65.2444 -65.2443 -65.2443 -65.2440
   -65.2437 -65.2427 -65.2413 -65.2413 -65.2408 -65.2403 -65.2402 -65.2399
   -65.2371 -65.2371 -65.2370 -65.2364 -65.2363 -65.2360 -65.2354 -65.2343
   -65.2317 -65.2312 -65.2308 -65.2305 -65.2304 -65.2299 -65.2298 -65.2297
   -65.2297 -65.2295 -65.2293 -65.2285 -65.2267 -65.2266 -65.2262 -65.2257
   -65.2256 -65.2251 -65.2236 -65.2232 -65.2226 -65.2223 -65.2223 -65.2219
   -65.2211 -65.2210 -65.2206 -65.2198 -65.2193 -65.2191 -65.2190 -65.2185
   -65.2185 -65.2180 -65.2179 -65.2152 -65.2151 -65.2149 -65.2148 -65.2137
   -65.2126 -65.2114 -65.2110 -65.2110 -65.2090 -65.2088 -65.2075 -65.2070
   -65.2004 -65.1998 -65.0734 -65.0661 -65.0659 -65.0651 -65.0646 -65.0499
   -65.0470 -65.0467 -65.0421 -65.0420 -65.0420 -65.0419 -65.0351 -65.0348
   -65.0341 -65.0338 -65.0265 -65.0264 -65.0258 -65.0234 -65.0233 -65.0233
   -65.0226 -65.0148 -65.0136 -65.0110 -65.0109 -65.0109 -65.0108 -65.0029
   -65.0026 -65.0025 -64.9998 -64.9997 -64.9908 -64.9907 -64.9818 -64.9806
   -64.9792 -64.9778 -64.9773 -64.9763 -64.9753 -64.9746 -64.9745 -64.9505
   -64.9504 -64.9480 -64.9480 -64.9458 -64.9457 -64.9456 -64.9455 -64.9454
   -12.6564  -9.9193  -9.9140  -6.3269  -6.3108  -4.3425  -3.2658  -3.2656
    -2.7441  -2.6683  -2.6677  -2.4146  -1.8639  -1.7731  -1.7644  -1.7486
    -1.7330  -1.7314  -1.2248  -1.2230  -0.7626  -0.6967  -0.5380  -0.5019
    -0.4565  -0.1203   0.0622   0.0635   0.0743   0.0836   0.0837   0.0838
     0.0840   0.1023   0.1711   0.1780   0.2422   0.2485   0.2522   0.2576
     0.2628   0.2817   0.2818   0.2818   0.2820   0.3372   0.3374   0.3377
     0.3377   0.4648   0.5016   0.5016   0.5023   0.5024   0.5398   0.5829
     0.6798   0.6798   0.6800   0.6801   0.6930   0.7156   0.7178   0.7328
     0.7328   0.7335   0.7336   0.8536   0.8537   0.8539   0.8540   0.8762
     0.8770   0.9638   0.9758   0.9760   0.9767   0.9767   1.0140   1.0141
     1.0581   1.0582   1.1275   1.1277   1.1283   1.1285   1.1896   1.1897
     1.2195   1.2202   1.2384   1.2388   1.2397   1.2400   1.2584   1.2585
     1.2906   1.2956   1.3444   1.3587   1.3595   1.3867   1.3875   1.4049
     1.4076   1.4159   1.4160   1.4165   1.4165   1.4724   1.4741   1.4770
     1.4773   1.4778   1.4780   1.5280   1.5321   1.5508   1.5519   1.5528
     1.5528   1.5616   1.5625   1.5625   1.6078   1.6214   1.6466   1.6495
     1.6501   1.6590   1.6659   1.7004   1.7006   1.7010   1.7010   1.7011
     1.7104   1.7159   1.7646   1.7650   1.7727   1.7739   1.7856   1.7860
     1.8198   1.8205   1.8207   1.8210   1.8417   1.8443   1.8451   1.8466
     1.8469   1.8716   1.8721   1.8745   1.8749   1.9062   1.9062   1.9278
     1.9377   1.9382   1.9844   1.9950   1.9985   2.0007   2.0060   2.0065
     2.0097   2.0099   2.0160   2.0191   2.0249   2.0267   2.0270   2.0456
     2.0522   2.0526   2.0571   2.0606   2.0608   2.0846   2.0962   2.1328
     2.1407   2.1410   2.1665   2.2225   2.2226   2.2232   2.2242   2.2276
     2.2289   2.2295   2.2370   2.2376   2.2433   2.2567   2.2640   2.2902
     2.3010   2.3016   2.3023   2.3143   2.3225   2.3227   2.3229   2.3241
     2.3242   2.3298   2.3482   2.3485   2.3549   2.3576   2.3582   2.4366
     2.4610   2.4788   2.4791   2.5066   2.5067   2.5073   2.5079   2.5387
     2.5392   2.5435   2.5563   2.5778   2.5791   2.5827   2.5831   2.5933
     2.6051   2.6190   2.6198   2.6199   2.6202   2.6203   2.6332   2.6528
     2.6533   2.6550   2.6583   2.7088   2.7088   2.7098   2.7102   2.7207
     2.7216   2.7454   2.7458   2.7745   2.7750   2.7806   2.7820   2.8072
     2.8072   2.8311   2.8344   2.8396   2.8549   2.8940   2.8958   2.9082
     2.9099   2.9159   2.9162   2.9323   2.9448   2.9449   2.9486   2.9490
     2.9509   2.9522   2.9686   2.9725   2.9726   2.9728   2.9731   2.9904
     2.9908   2.9908   3.0009   3.0042   3.0189   3.0203   3.0381   3.0383
     3.0387   3.0408   3.0465   3.0583   3.0766   3.0895   3.0897   3.0907
     3.0909   3.1912   3.2122   3.7251   3.7452   3.7487   3.7564   4.2557
     4.3012   4.3014   4.3016   4.3017   4.5701   4.5709   4.5717   4.5720
     4.9138   4.9228   4.9436   5.0457   5.0821   5.1229   5.1279   5.1299
     5.1332   5.4142   5.7528   6.0085   6.0296   6.0508   6.0892   6.1090
     6.1120   6.1209   6.1703   6.5642   6.6265   7.1805   7.2745   7.4203
     7.4209   7.4253   7.6110   7.9274   7.9808   8.1569   8.2821   8.4132
     8.5433   8.5476   8.5483   8.5708   8.8929   8.9279   8.9316   9.1860
     9.1948   9.1963   9.2073   9.2453   9.4595   9.6026   9.6599   9.7757
     9.8043   9.8594   9.8804   9.8847   9.9125  10.2710  10.3205  10.3635
    10.4009  10.4322  10.4878  10.4962  10.5182  10.8059  10.8588  11.0213
    11.0845  11.1709  11.2562  11.2725  11.3446  11.3824  11.4351  11.4663
    11.4832  11.5670  11.7150  12.0335  12.1129  12.1377  12.2182  12.2592
    12.2702  12.3063  12.4415  12.5242  12.7537  12.7807  12.8937  12.9586
    12.9738  13.0310  13.0374  13.0922  13.1090  13.2076  13.2180  13.2373
    13.2479  13.2845  13.2982  13.3338  13.4861  13.6122  13.6770  13.6778
    13.7406  13.8327

          k =-0.5000-0.2887 0.0000 ( 61408 PWs)   bands (ev):

  -107.8386-107.8373-107.8353-107.8342-107.8333-107.8322-107.8315-107.8309
  -107.8306-107.8304-107.8302-107.8301-107.8298-107.8292-107.8285-107.8283
  -107.8279-107.8270-107.8264-107.8243-107.8241-107.8228-107.8221-107.8221
  -107.8218-107.8208-107.8207-107.8177-107.8169-107.8149-107.8148-107.8131
  -107.8125-107.8125-107.8124-107.8113-107.6053-107.6041-107.6025-107.6014
  -107.6004-107.5995-107.5985-107.5980-107.5980-107.5784-107.5782-107.5758
  -107.5757-107.5733-107.5733-107.5732-107.5731-107.5731 -65.2890 -65.2884
   -65.2861 -65.2847 -65.2810 -65.2808 -65.2797 -65.2795 -65.2788 -65.2786
   -65.2780 -65.2778 -65.2776 -65.2770 -65.2736 -65.2673 -65.2669 -65.2667
   -65.2663 -65.2661 -65.2658 -65.2657 -65.2651 -65.2648 -65.2625 -65.2623
   -65.2619 -65.2615 -65.2551 -65.2547 -65.2539 -65.2536 -65.2532 -65.2528
   -65.2516 -65.2480 -65.2480 -65.2455 -65.2444 -65.2443 -65.2443 -65.2440
   -65.2437 -65.2427 -65.2413 -65.2413 -65.2408 -65.2403 -65.2402 -65.2399
   -65.2371 -65.2371 -65.2370 -65.2364 -65.2363 -65.2360 -65.2354 -65.2343
   -65.2317 -65.2312 -65.2308 -65.2305 -65.2304 -65.2299 -65.2298 -65.2297
   -65.2297 -65.2295 -65.2293 -65.2285 -65.2267 -65.2266 -65.2262 -65.2257
   -65.2256 -65.2251 -65.2236 -65.2232 -65.2226 -65.2223 -65.2223 -65.2219
   -65.2211 -65.2210 -65.2206 -65.2198 -65.2193 -65.2191 -65.2190 -65.2185
   -65.2185 -65.2180 -65.2179 -65.2152 -65.2151 -65.2149 -65.2148 -65.2137
   -65.2126 -65.2114 -65.2110 -65.2110 -65.2090 -65.2088 -65.2075 -65.2070
   -65.2004 -65.1998 -65.0734 -65.0661 -65.0659 -65.0651 -65.0646 -65.0499
   -65.0470 -65.0467 -65.0421 -65.0420 -65.0420 -65.0419 -65.0351 -65.0348
   -65.0341 -65.0338 -65.0265 -65.0264 -65.0258 -65.0234 -65.0233 -65.0233
   -65.0226 -65.0148 -65.0136 -65.0110 -65.0109 -65.0109 -65.0108 -65.0029
   -65.0026 -65.0025 -64.9998 -64.9997 -64.9908 -64.9907 -64.9818 -64.9806
   -64.9792 -64.9778 -64.9773 -64.9763 -64.9753 -64.9746 -64.9745 -64.9505
   -64.9504 -64.9480 -64.9480 -64.9458 -64.9457 -64.9456 -64.9455 -64.9454
   -12.6564  -9.9193  -9.9139  -6.3269  -6.3108  -4.3425  -3.2658  -3.2656
    -2.7441  -2.6683  -2.6677  -2.4146  -1.8640  -1.7730  -1.7644  -1.7486
    -1.7330  -1.7314  -1.2248  -1.2230  -0.7626  -0.6967  -0.5380  -0.5019
    -0.4565  -0.1203   0.0622   0.0635   0.0743   0.0836   0.0837   0.0838
     0.0840   0.1023   0.1711   0.1781   0.2422   0.2485   0.2522   0.2576
     0.2628   0.2817   0.2818   0.2818   0.2820   0.3372   0.3374   0.3377
     0.3377   0.4648   0.5016   0.5016   0.5023   0.5024   0.5398   0.5829
     0.6798   0.6798   0.6800   0.6801   0.6930   0.7156   0.7178   0.7328
     0.7328   0.7335   0.7336   0.8536   0.8537   0.8539   0.8540   0.8762
     0.8770   0.9638   0.9758   0.9760   0.9767   0.9767   1.0140   1.0141
     1.0581   1.0582   1.1275   1.1277   1.1283   1.1285   1.1896   1.1897
     1.2195   1.2202   1.2384   1.2388   1.2397   1.2400   1.2584   1.2585
     1.2906   1.2956   1.3444   1.3587   1.3595   1.3867   1.3875   1.4049
     1.4076   1.4159   1.4160   1.4165   1.4165   1.4724   1.4741   1.4770
     1.4773   1.4778   1.4780   1.5280   1.5321   1.5508   1.5519   1.5528
     1.5528   1.5616   1.5625   1.5625   1.6078   1.6214   1.6466   1.6495
     1.6501   1.6590   1.6659   1.7004   1.7006   1.7010   1.7010   1.7011
     1.7104   1.7159   1.7646   1.7650   1.7727   1.7739   1.7856   1.7860
     1.8198   1.8205   1.8207   1.8210   1.8417   1.8443   1.8451   1.8466
     1.8469   1.8716   1.8721   1.8745   1.8749   1.9062   1.9062   1.9278
     1.9377   1.9382   1.9844   1.9950   1.9985   2.0007   2.0060   2.0065
     2.0097   2.0099   2.0160   2.0191   2.0249   2.0267   2.0270   2.0456
     2.0522   2.0526   2.0571   2.0606   2.0608   2.0846   2.0962   2.1328
     2.1407   2.1410   2.1665   2.2225   2.2226   2.2232   2.2242   2.2276
     2.2289   2.2295   2.2370   2.2376   2.2433   2.2567   2.2640   2.2902
     2.3010   2.3016   2.3023   2.3143   2.3225   2.3227   2.3229   2.3241
     2.3242   2.3298   2.3482   2.3485   2.3549   2.3576   2.3582   2.4366
     2.4610   2.4788   2.4791   2.5066   2.5067   2.5073   2.5079   2.5387
     2.5392   2.5435   2.5563   2.5778   2.5791   2.5827   2.5831   2.5934
     2.6051   2.6190   2.6198   2.6199   2.6202   2.6203   2.6332   2.6528
     2.6533   2.6550   2.6583   2.7088   2.7088   2.7098   2.7102   2.7207
     2.7216   2.7454   2.7458   2.7745   2.7750   2.7806   2.7820   2.8072
     2.8072   2.8311   2.8344   2.8396   2.8549   2.8940   2.8958   2.9082
     2.9099   2.9159   2.9162   2.9323   2.9448   2.9449   2.9486   2.9490
     2.9509   2.9522   2.9686   2.9725   2.9726   2.9728   2.9731   2.9904
     2.9908   2.9908   3.0009   3.0042   3.0189   3.0203   3.0381   3.0383
     3.0387   3.0408   3.0465   3.0583   3.0766   3.0895   3.0897   3.0907
     3.0909   3.1912   3.2122   3.7251   3.7452   3.7487   3.7564   4.2557
     4.3012   4.3014   4.3016   4.3017   4.5701   4.5709   4.5717   4.5720
     4.9138   4.9228   4.9436   5.0457   5.0821   5.1229   5.1279   5.1299
     5.1332   5.4142   5.7528   6.0085   6.0296   6.0508   6.0892   6.1090
     6.1120   6.1209   6.1703   6.5642   6.6265   7.1805   7.2745   7.4203
     7.4209   7.4253   7.6110   7.9274   7.9808   8.1569   8.2821   8.4132
     8.5433   8.5476   8.5483   8.5708   8.8929   8.9279   8.9316   9.1860
     9.1948   9.1963   9.2073   9.2453   9.4595   9.6026   9.6599   9.7757
     9.8043   9.8594   9.8804   9.8847   9.9125  10.2710  10.3205  10.3635
    10.4009  10.4322  10.4878  10.4962  10.5182  10.8059  10.8588  11.0212
    11.0845  11.1709  11.2562  11.2725  11.3446  11.3824  11.4351  11.4663
    11.4832  11.5670  11.7150  12.0335  12.1129  12.1376  12.2182  12.2591
    12.2702  12.3063  12.4414  12.5242  12.7536  12.7808  12.8937  12.9586
    12.9737  13.0310  13.0374  13.0922  13.1090  13.2076  13.2180  13.2373
    13.2479  13.2845  13.2982  13.3338  13.4861  13.6122  13.6770  13.6778
    13.7406  13.8327

          k =-0.2500-0.7217 0.0000 ( 61343 PWs)   bands (ev):

  -107.8387-107.8369-107.8357-107.8345-107.8322-107.8322-107.8319-107.8311
  -107.8310-107.8304-107.8301-107.8299-107.8297-107.8289-107.8287-107.8283
  -107.8279-107.8271-107.8258-107.8253-107.8233-107.8228-107.8224-107.8221
  -107.8218-107.8209-107.8206-107.8178-107.8165-107.8159-107.8139-107.8133
  -107.8128-107.8124-107.8123-107.8112-107.6054-107.6038-107.6030-107.6010
  -107.6004-107.5996-107.5985-107.5982-107.5979-107.5787-107.5773-107.5772
  -107.5743-107.5742-107.5733-107.5732-107.5731-107.5728 -65.2900 -65.2856
   -65.2849 -65.2842 -65.2837 -65.2829 -65.2825 -65.2812 -65.2796 -65.2779
   -65.2776 -65.2766 -65.2738 -65.2721 -65.2716 -65.2713 -65.2712 -65.2687
   -65.2662 -65.2651 -65.2650 -65.2649 -65.2645 -65.2631 -65.2628 -65.2620
   -65.2612 -65.2609 -65.2584 -65.2577 -65.2535 -65.2527 -65.2523 -65.2515
   -65.2491 -65.2488 -65.2482 -65.2478 -65.2475 -65.2449 -65.2442 -65.2439
   -65.2431 -65.2424 -65.2419 -65.2415 -65.2406 -65.2382 -65.2379 -65.2377
   -65.2375 -65.2373 -65.2371 -65.2361 -65.2357 -65.2353 -65.2348 -65.2339
   -65.2335 -65.2322 -65.2320 -65.2318 -65.2316 -65.2311 -65.2295 -65.2285
   -65.2282 -65.2281 -65.2277 -65.2275 -65.2268 -65.2266 -65.2263 -65.2260
   -65.2258 -65.2248 -65.2245 -65.2238 -65.2234 -65.2230 -65.2226 -65.2215
   -65.2209 -65.2204 -65.2203 -65.2202 -65.2200 -65.2199 -65.2198 -65.2195
   -65.2179 -65.2175 -65.2171 -65.2154 -65.2150 -65.2144 -65.2141 -65.2141
   -65.2133 -65.2131 -65.2111 -65.2100 -65.2099 -65.2090 -65.2054 -65.2035
   -65.2034 -65.1997 -65.0715 -65.0707 -65.0682 -65.0616 -65.0581 -65.0573
   -65.0477 -65.0476 -65.0448 -65.0384 -65.0382 -65.0366 -65.0353 -65.0350
   -65.0343 -65.0342 -65.0302 -65.0292 -65.0287 -65.0284 -65.0221 -65.0177
   -65.0173 -65.0147 -65.0133 -65.0127 -65.0119 -65.0118 -65.0061 -65.0061
   -65.0053 -65.0052 -64.9987 -64.9941 -64.9940 -64.9900 -64.9819 -64.9804
   -64.9796 -64.9776 -64.9773 -64.9764 -64.9753 -64.9747 -64.9744 -64.9508
   -64.9495 -64.9493 -64.9467 -64.9465 -64.9457 -64.9457 -64.9455 -64.9452
   -12.6564  -9.9181  -9.9152  -6.3227  -6.3150  -4.3428  -3.4712  -2.8669
    -2.7438  -2.6651  -2.6650  -2.4144  -2.0933  -2.0922  -1.9509  -1.8298
    -1.7927  -1.2408  -1.2329  -0.8817  -0.6547  -0.6541  -0.5556  -0.3042
    -0.3034  -0.2626  -0.2372  -0.0632  -0.0631  -0.0534   0.1044   0.1109
     0.1242   0.1314   0.1316   0.1470   0.1600   0.1976   0.2095   0.2096
     0.2270   0.3256   0.3289   0.3319   0.3320   0.4036   0.4095   0.4696
     0.4706   0.4821   0.4931   0.5210   0.5211   0.5237   0.5420   0.5432
     0.6083   0.6088   0.6361   0.6372   0.6674   0.6675   0.6935   0.7022
     0.7026   0.7689   0.7691   0.7970   0.8184   0.8305   0.8308   0.9043
     0.9062   0.9570   0.9765   0.9769   1.0044   1.0047   1.0630   1.0719
     1.0726   1.0881   1.0882   1.1011   1.1404   1.1674   1.1677   1.2105
     1.2110   1.2371   1.2414   1.2426   1.2442   1.2610   1.2610   1.3191
     1.3198   1.3231   1.3235   1.3274   1.3389   1.3567   1.3579   1.3701
     1.3711   1.3980   1.3998   1.4219   1.4221   1.4237   1.4427   1.4684
     1.5089   1.5162   1.5167   1.5172   1.5183   1.5467   1.5652   1.5684
     1.5704   1.6073   1.6081   1.6085   1.6115   1.6180   1.6411   1.6619
     1.6622   1.6778   1.6779   1.7006   1.7057   1.7163   1.7166   1.7251
     1.7261   1.7425   1.7432   1.7602   1.7606   1.7760   1.7837   1.8067
     1.8073   1.8163   1.8280   1.8434   1.8449   1.8453   1.8537   1.8614
     1.8624   1.8734   1.8736   1.8767   1.8878   1.8897   1.8914   1.8916
     1.9138   1.9206   1.9424   1.9490   1.9576   1.9636   1.9694   1.9705
     1.9799   1.9801   1.9805   1.9844   1.9890   1.9892   1.9939   1.9951
     2.0466   2.0484   2.0854   2.0963   2.1233   2.1254   2.1265   2.1309
     2.1392   2.1447   2.1583   2.1584   2.1819   2.1959   2.2001   2.2027
     2.2250   2.2269   2.2612   2.2670   2.2688   2.2943   2.2953   2.2970
     2.2980   2.2997   2.3016   2.3038   2.3073   2.3155   2.3343   2.3368
     2.3803   2.3839   2.3850   2.3873   2.3929   2.3972   2.4042   2.4282
     2.4330   2.4373   2.4515   2.4747   2.4751   2.4948   2.5013   2.5019
     2.5131   2.5162   2.5465   2.5548   2.5595   2.5610   2.5872   2.5884
     2.6098   2.6154   2.6160   2.6344   2.6363   2.6576   2.6588   2.6602
     2.6630   2.6668   2.6783   2.6786   2.6835   2.6903   2.6961   2.7138
     2.7487   2.7537   2.7543   2.7590   2.8049   2.8054   2.8169   2.8200
     2.8488   2.8609   2.8618   2.8678   2.8683   2.8807   2.8845   2.9121
     2.9134   2.9136   2.9226   2.9231   2.9333   2.9358   2.9371   2.9378
     2.9405   2.9462   2.9467   2.9478   2.9506   2.9645   2.9656   2.9796
     2.9804   2.9891   2.9911   2.9914   3.0029   3.0187   3.0236   3.0300
     3.0307   3.0475   3.0771   3.0774   3.0897   3.1106   3.1112   3.2673
     3.2744   3.3789   3.3790   3.4798   3.4805   3.5883   3.8039   3.8079
     4.1859   4.2027   4.2889   4.2895   4.3032   4.5646   4.6713   4.6818
     4.6964   4.6967   4.8332   5.1409   5.1686   5.1697   5.6154   5.6531
     5.6780   5.7397   5.9070   5.9224   5.9241   6.0540   6.0639   6.1447
     6.2208   6.5898   6.6653   6.6688   6.8392   6.9270   6.9835   7.0470
     7.0483   7.2702   7.3114   7.3725   7.5921   7.7677   7.8812   7.9460
     8.4596   8.4735   8.4781   8.5766   8.7325   9.0108   9.1223   9.1493
     9.2140   9.3127   9.3217   9.4628   9.4767   9.6458   9.6554   9.6937
     9.7934   9.8825  10.0113  10.1170  10.1604  10.3488  10.4156  10.4545
    10.5078  10.5979  10.6937  10.8018  10.8445  11.0605  11.0951  11.1726
    11.2422  11.2573  11.4465  11.4713  11.4784  11.5942  11.6161  11.6989
    11.7042  11.8041  11.8520  11.8534  11.9961  12.0929  12.1387  12.1605
    12.2750  12.3637  12.4041  12.4289  12.4943  12.5298  12.5847  12.6139
    12.7081  12.7319  12.8155  12.8803  12.9388  12.9898  13.1498  13.2389
    13.2728  13.3011  13.3730  13.4148  13.4774  13.5212  13.5329  13.6355
    13.6601  13.6853

          k =-0.5000-0.5774 0.0000 ( 61343 PWs)   bands (ev):

  -107.8387-107.8369-107.8357-107.8345-107.8322-107.8322-107.8319-107.8311
  -107.8310-107.8304-107.8301-107.8299-107.8297-107.8289-107.8287-107.8283
  -107.8279-107.8271-107.8258-107.8253-107.8233-107.8228-107.8224-107.8221
  -107.8218-107.8209-107.8206-107.8178-107.8165-107.8159-107.8139-107.8133
  -107.8128-107.8124-107.8123-107.8112-107.6054-107.6038-107.6030-107.6010
  -107.6004-107.5996-107.5985-107.5982-107.5979-107.5787-107.5773-107.5772
  -107.5743-107.5742-107.5733-107.5732-107.5731-107.5728 -65.2900 -65.2856
   -65.2849 -65.2842 -65.2837 -65.2829 -65.2825 -65.2812 -65.2796 -65.2779
   -65.2776 -65.2766 -65.2738 -65.2721 -65.2716 -65.2713 -65.2712 -65.2687
   -65.2662 -65.2651 -65.2650 -65.2649 -65.2645 -65.2631 -65.2628 -65.2620
   -65.2612 -65.2609 -65.2584 -65.2577 -65.2535 -65.2527 -65.2523 -65.2515
   -65.2491 -65.2488 -65.2482 -65.2478 -65.2475 -65.2449 -65.2442 -65.2440
   -65.2431 -65.2424 -65.2419 -65.2415 -65.2406 -65.2382 -65.2379 -65.2377
   -65.2375 -65.2373 -65.2371 -65.2361 -65.2357 -65.2353 -65.2348 -65.2339
   -65.2335 -65.2322 -65.2320 -65.2318 -65.2316 -65.2311 -65.2295 -65.2285
   -65.2282 -65.2281 -65.2277 -65.2275 -65.2268 -65.2266 -65.2263 -65.2260
   -65.2258 -65.2248 -65.2245 -65.2238 -65.2234 -65.2230 -65.2226 -65.2215
   -65.2209 -65.2204 -65.2203 -65.2202 -65.2200 -65.2199 -65.2198 -65.2195
   -65.2179 -65.2175 -65.2171 -65.2154 -65.2150 -65.2144 -65.2141 -65.2141
   -65.2133 -65.2131 -65.2111 -65.2100 -65.2099 -65.2090 -65.2054 -65.2035
   -65.2034 -65.1997 -65.0715 -65.0707 -65.0682 -65.0616 -65.0581 -65.0573
   -65.0477 -65.0476 -65.0448 -65.0384 -65.0382 -65.0366 -65.0353 -65.0350
   -65.0343 -65.0342 -65.0302 -65.0292 -65.0287 -65.0284 -65.0221 -65.0177
   -65.0173 -65.0147 -65.0133 -65.0127 -65.0119 -65.0118 -65.0061 -65.0061
   -65.0053 -65.0052 -64.9987 -64.9941 -64.9940 -64.9900 -64.9819 -64.9804
   -64.9795 -64.9776 -64.9773 -64.9764 -64.9753 -64.9747 -64.9744 -64.9508
   -64.9495 -64.9493 -64.9467 -64.9465 -64.9457 -64.9457 -64.9455 -64.9452
   -12.6564  -9.9179  -9.9154  -6.3230  -6.3146  -4.3428  -3.4712  -2.8669
    -2.7438  -2.6651  -2.6650  -2.4144  -2.0933  -2.0922  -1.9509  -1.8299
    -1.7927  -1.2408  -1.2329  -0.8817  -0.6547  -0.6541  -0.5556  -0.3042
    -0.3034  -0.2626  -0.2372  -0.0632  -0.0631  -0.0534   0.1044   0.1109
     0.1243   0.1314   0.1316   0.1470   0.1599   0.1976   0.2095   0.2096
     0.2270   0.3256   0.3289   0.3319   0.3321   0.4036   0.4095   0.4696
     0.4706   0.4821   0.4931   0.5210   0.5211   0.5237   0.5420   0.5432
     0.6083   0.6088   0.6361   0.6372   0.6674   0.6675   0.6935   0.7022
     0.7026   0.7689   0.7691   0.7970   0.8184   0.8305   0.8308   0.9043
     0.9062   0.9570   0.9765   0.9769   1.0044   1.0047   1.0630   1.0719
     1.0726   1.0881   1.0882   1.1011   1.1404   1.1674   1.1677   1.2105
     1.2110   1.2371   1.2414   1.2426   1.2442   1.2610   1.2610   1.3191
     1.3198   1.3231   1.3235   1.3274   1.3389   1.3567   1.3579   1.3701
     1.3711   1.3980   1.3998   1.4219   1.4221   1.4237   1.4427   1.4684
     1.5089   1.5162   1.5167   1.5172   1.5183   1.5467   1.5652   1.5684
     1.5704   1.6073   1.6081   1.6085   1.6115   1.6180   1.6411   1.6619
     1.6622   1.6778   1.6779   1.7006   1.7057   1.7163   1.7166   1.7251
     1.7261   1.7425   1.7432   1.7602   1.7606   1.7760   1.7837   1.8067
     1.8073   1.8163   1.8280   1.8434   1.8449   1.8453   1.8537   1.8614
     1.8624   1.8734   1.8736   1.8767   1.8878   1.8897   1.8914   1.8916
     1.9138   1.9206   1.9424   1.9490   1.9576   1.9636   1.9694   1.9705
     1.9799   1.9801   1.9805   1.9844   1.9890   1.9892   1.9939   1.9951
     2.0466   2.0484   2.0854   2.0963   2.1233   2.1254   2.1265   2.1309
     2.1392   2.1447   2.1583   2.1584   2.1819   2.1959   2.2001   2.2027
     2.2250   2.2269   2.2612   2.2670   2.2688   2.2943   2.2953   2.2970
     2.2980   2.2997   2.3016   2.3038   2.3073   2.3155   2.3343   2.3368
     2.3803   2.3839   2.3850   2.3873   2.3929   2.3972   2.4042   2.4282
     2.4330   2.4373   2.4516   2.4747   2.4751   2.4948   2.5013   2.5019
     2.5131   2.5162   2.5465   2.5548   2.5595   2.5610   2.5872   2.5884
     2.6098   2.6154   2.6160   2.6344   2.6363   2.6576   2.6588   2.6602
     2.6630   2.6668   2.6783   2.6786   2.6835   2.6903   2.6960   2.7138
     2.7487   2.7537   2.7543   2.7590   2.8049   2.8054   2.8169   2.8200
     2.8488   2.8608   2.8619   2.8678   2.8683   2.8807   2.8845   2.9121
     2.9134   2.9136   2.9226   2.9231   2.9333   2.9358   2.9371   2.9378
     2.9405   2.9463   2.9467   2.9478   2.9506   2.9645   2.9656   2.9796
     2.9804   2.9891   2.9911   2.9914   3.0029   3.0187   3.0236   3.0300
     3.0307   3.0475   3.0771   3.0774   3.0897   3.1106   3.1112   3.2673
     3.2744   3.3789   3.3790   3.4798   3.4805   3.5883   3.8039   3.8079
     4.1859   4.2027   4.2889   4.2895   4.3032   4.5646   4.6713   4.6818
     4.6964   4.6967   4.8332   5.1409   5.1686   5.1697   5.6154   5.6531
     5.6780   5.7396   5.9070   5.9224   5.9241   6.0540   6.0639   6.1447
     6.2208   6.5898   6.6653   6.6689   6.8391   6.9270   6.9835   7.0470
     7.0483   7.2703   7.3113   7.3725   7.5921   7.7677   7.8812   7.9460
     8.4595   8.4735   8.4780   8.5766   8.7325   9.0108   9.1223   9.1493
     9.2140   9.3127   9.3217   9.4628   9.4767   9.6458   9.6554   9.6938
     9.7934   9.8824  10.0113  10.1171  10.1604  10.3488  10.4156  10.4545
    10.5078  10.5979  10.6937  10.8018  10.8445  11.0605  11.0951  11.1726
    11.2422  11.2573  11.4465  11.4713  11.4784  11.5942  11.6161  11.6989
    11.7042  11.8041  11.8521  11.8535  11.9960  12.0929  12.1387  12.1605
    12.2751  12.3637  12.4041  12.4289  12.4943  12.5298  12.5847  12.6139
    12.7081  12.7318  12.8155  12.8802  12.9388  12.9898  13.1498  13.2387
    13.2728  13.3011  13.3730  13.4148  13.4774  13.5212  13.5330  13.6355
    13.6601  13.6853

     the Fermi energy is     4.6082 ev

!    total energy              =  -21903.76875877 Ry
     Harris-Foulkes estimate   =  -21903.76875888 Ry
     estimated scf accuracy    <          5.3E-09 Ry

     The total energy is the sum of the following terms:

     one-electron contribution = -207090.93597740 Ry
     hartree contribution      =  103748.06822166 Ry
     xc contribution           =   -2143.19088342 Ry
     ewald contribution        =   83582.34249877 Ry
     smearing contrib. (-TS)   =      -0.05261837 Ry

     convergence has been achieved in  37 iterations
 
     init_run     :     73.93s CPU     76.65s WALL (       1 calls)
     electrons    :  18174.50s CPU  18490.55s WALL (       1 calls)

     Called by init_run:
     wfcinit      :     63.22s CPU     65.06s WALL (       1 calls)
     potinit      :      7.67s CPU      7.98s WALL (       1 calls)
     hinit0       :      1.28s CPU      1.30s WALL (       1 calls)

     Called by electrons:
     c_bands      :  16713.45s CPU  16963.64s WALL (      37 calls)
     sum_band     :   1139.76s CPU   1177.45s WALL (      37 calls)
     v_of_rho     :    257.05s CPU    265.80s WALL (      38 calls)
     newd         :     59.17s CPU     78.94s WALL (      38 calls)
     mix_rho      :      8.01s CPU      8.22s WALL (      37 calls)

     Called by c_bands:
     init_us_2    :     14.80s CPU     15.39s WALL (     750 calls)
     cegterg      :  16586.12s CPU  16829.86s WALL (     370 calls)

     Called by sum_band:
     sum_band:bec :      2.85s CPU      2.85s WALL (     370 calls)
     addusdens    :     32.99s CPU     56.61s WALL (      37 calls)

     Called by *egterg:
     h_psi        :   5533.60s CPU   5618.48s WALL (    2050 calls)
     s_psi        :    374.72s CPU    375.33s WALL (    2050 calls)
     g_psi        :      6.44s CPU      6.48s WALL (    1670 calls)
     cdiaghg      :   8619.74s CPU   8683.57s WALL (    2040 calls)

     Called by h_psi:
     h_psi:pot    :   5523.81s CPU   5587.43s WALL (    2050 calls)
     h_psi:calbec :    461.21s CPU    465.54s WALL (    2050 calls)
     vloc_psi     :   4686.25s CPU   4744.26s WALL (    2050 calls)
     add_vuspsi   :    376.32s CPU    377.62s WALL (    2050 calls)

     General routines
     calbec       :    617.43s CPU    622.12s WALL (    2420 calls)
     fft          :    261.13s CPU    262.84s WALL (    2393 calls)
     ffts         :      3.91s CPU      3.92s WALL (      75 calls)
     fftw         :   5351.49s CPU   5417.42s WALL ( 1490156 calls)
     interpolate  :      3.90s CPU      3.93s WALL (      38 calls)
 
     Parallel routines
     fft_scatt_xy :    226.22s CPU    228.02s WALL ( 1492624 calls)
     fft_scatt_yz :   4521.62s CPU   4576.72s WALL ( 1492624 calls)
 
     PWSCF        :     5h 4m CPU        4h 5m WALL

       9h
 
   This run was terminated on:  14:19:38  20Nov2019            

=------------------------------------------------------------------------------=
   JOB DONE.
=------------------------------------------------------------------------------=
