
     Program PWSCF v.6.3MaX starts on 15Nov2019 at  3:12:29 

     This program is part of the open-source Quantum ESPRESSO suite
     for quantum simulation of materials; please cite
         "P. Giannozzi et al., J. Phys.:Condens. Matter 21 395502 (2009);
         "P. Giannozzi et al., J. Phys.:Condens. Matter 29 465901 (2017);
          URL http://www.quantum-espresso.org", 
     in publications or presentations arising from this work. More details at
     http://www.quantum-espresso.org/quote

     Parallel version (MPI), running on    16 processors

     MPI processes distributed on     2 nodes
     R & G space division:  proc/nbgrp/npool/nimage =      16
     Waiting for input...
     Reading input from standard input

     Current dimensions of program PWSCF are:
     Max number of different atomic species (ntypx) = 10
     Max number of k-points (npk) =  40000
     Max angular momentum in pseudopotentials (lmaxx) =  3
     Message from routine iosys:
     minimal I/O required, wf_collect reset to FALSE

     IMPORTANT: XC functional enforced from input :
     Exchange-correlation      = VDW-DF ( 1  4  4  0 1 0)
     Any further DFT definition will be discarded
     Please, verify this is what you really want


     Subspace diagonalization in iterative solution of the eigenvalue problem:
     one sub-group per band group will be used
     scalapack distributed-memory algorithm (size of sub-group:  2*  2 procs)

 
     Parallelization info
     --------------------
     sticks:   dense  smooth     PW     G-vecs:    dense   smooth      PW
     Min         565     189     51               159513    30701    4383
     Max         566     190     52               159526    30710    4400
     Sum        9055    3037    823              2552337   491295   70261
 


     bravais-lattice index     =            0
     lattice parameter (alat)  =      14.8058  a.u.
     unit-cell volume          =   10282.4791 (a.u.)^3
     number of atoms/cell      =           66
     number of atomic types    =            3
     number of electrons       =      1056.00
     number of Kohn-Sham states=          634
     kinetic-energy cutoff     =      50.0000  Ry
     charge density cutoff     =     600.0000  Ry
     convergence threshold     =      1.0E-08
     mixing beta               =       0.3000
     number of iterations used =            8  plain     mixing
     Exchange-correlation      = VDW-DF ( 1  4  4  0 1 0)

     celldm(1)=  14.805786  celldm(2)=   0.000000  celldm(3)=   0.000000
     celldm(4)=   0.000000  celldm(5)=   0.000000  celldm(6)=   0.000000

     crystal axes: (cart. coord. in units of alat)
               a(1) = (   1.000000   0.000000   0.000000 )  
               a(2) = (   0.500000   0.866025   0.000000 )  
               a(3) = (   0.000000   0.000000   3.658245 )  

     reciprocal axes: (cart. coord. in units 2 pi/alat)
               b(1) = (  1.000000 -0.577350  0.000000 )  
               b(2) = (  0.000000  1.154701  0.000000 )  
               b(3) = (  0.000000  0.000000  0.273355 )  


     PseudoPot. # 1 for Cu read from file:
     /deac/thonhauserGrp/chakrad/calculations/atomandmolecule-qe6.2.1-i2012-C6modif/all_pbe_UPF_v1.5/cu_pbe_v1.2.uspp.F.UPF
     MD5 check sum: 6e991ff952a84172a2a52a1c1e996048
     Pseudo is Ultrasoft + core correction, Zval = 19.0
     Generated by new atomic code, or converted to UPF format
     Using radial grid of  867 points,  6 beta functions with: 
                l(1) =   0
                l(2) =   0
                l(3) =   1
                l(4) =   1
                l(5) =   2
                l(6) =   2
     Q(r) pseudized with  8 coefficients,  rinner =    1.150   1.150   1.150
                                                       1.150   1.150

     PseudoPot. # 2 for C  read from file:
     /deac/thonhauserGrp/chakrad/calculations/atomandmolecule-qe6.2.1-i2012-C6modif/all_pbe_UPF_v1.5/c_pbe_v1.2.uspp.F.UPF
     MD5 check sum: d1aef80898a10debaa0f26306b886e00
     Pseudo is Ultrasoft + core correction, Zval =  4.0
     Generated by new atomic code, or converted to UPF format
     Using radial grid of  721 points,  4 beta functions with: 
                l(1) =   0
                l(2) =   0
                l(3) =   1
                l(4) =   1
     Q(r) pseudized with  8 coefficients,  rinner =    1.100   1.100   1.100


     PseudoPot. # 3 for H  read from file:
     /deac/thonhauserGrp/chakrad/calculations/atomandmolecule-qe6.2.1-i2012-C6modif/all_pbe_UPF_v1.5/h_pbe_v1.4.uspp.F.UPF
     MD5 check sum: 761ae9a214b05c3daf00ab9f6b793d6f
     Pseudo is Ultrasoft, Zval =  1.0
     Generated by new atomic code, or converted to UPF format
     Using radial grid of  615 points,  2 beta functions with: 
                l(1) =   0
                l(2) =   0
     Q(r) pseudized with  8 coefficients,  rinner =    0.700

     vdW kernel table read from file vdW_kernel_table
     MD5 check sum: cc9485f6209b1096fbef62427c856dab

     atomic species   valence    mass     pseudopotential
        Cu            19.00     1.00000     Cu( 1.00)
        C              4.00     1.00000     C ( 1.00)
        H              1.00     1.00000     H ( 1.00)

     No symmetry found



   Cartesian axes

     site n.     atom                  positions (alat units)
         1           Cu  tau(   1) = (   0.1666667   0.0962250   0.2552686  )
         2           Cu  tau(   2) = (   0.5000000   0.0962250   0.2552686  )
         3           Cu  tau(   3) = (   0.8333333   0.0962250   0.2552686  )
         4           Cu  tau(   4) = (   0.3333333   0.3849002   0.2552686  )
         5           Cu  tau(   5) = (   0.6666667   0.3849002   0.2552686  )
         6           Cu  tau(   6) = (   1.0000000   0.3849002   0.2552686  )
         7           Cu  tau(   7) = (   0.5000000   0.6735753   0.2552686  )
         8           Cu  tau(   8) = (   0.8333333   0.6735753   0.2552686  )
         9           Cu  tau(   9) = (   1.1666667   0.6735753   0.2552686  )
        10           Cu  tau(  10) = (   0.0000000   0.1924501   0.5274341  )
        11           Cu  tau(  11) = (   0.3333333   0.1924501   0.5274341  )
        12           Cu  tau(  12) = (   0.6666667   0.1924501   0.5274341  )
        13           Cu  tau(  13) = (   0.1666667   0.4811252   0.5274341  )
        14           Cu  tau(  14) = (   0.5000000   0.4811252   0.5274341  )
        15           Cu  tau(  15) = (   0.8333333   0.4811252   0.5274341  )
        16           Cu  tau(  16) = (   0.3333333   0.7698004   0.5274341  )
        17           Cu  tau(  17) = (   0.6666667   0.7698004   0.5274341  )
        18           Cu  tau(  18) = (   1.0000000   0.7698004   0.5274341  )
        19           Cu  tau(  19) = (   0.0000000   0.0000000   0.7995997  )
        20           Cu  tau(  20) = (   0.3333333   0.0000000   0.7995997  )
        21           Cu  tau(  21) = (   0.6666667   0.0000000   0.7995997  )
        22           Cu  tau(  22) = (   0.1666667   0.2886751   0.7995997  )
        23           Cu  tau(  23) = (   0.5000000   0.2886751   0.7995997  )
        24           Cu  tau(  24) = (   0.8333333   0.2886751   0.7995997  )
        25           Cu  tau(  25) = (   0.3333333   0.5773503   0.7995997  )
        26           Cu  tau(  26) = (   0.6666667   0.5773503   0.7995997  )
        27           Cu  tau(  27) = (   1.0000000   0.5773503   0.7995997  )
        28           Cu  tau(  28) = (   0.1666659   0.0962246   1.0691130  )
        29           Cu  tau(  29) = (   0.5000000   0.0962241   1.0691104  )
        30           Cu  tau(  30) = (   0.8333341   0.0962246   1.0691130  )
        31           Cu  tau(  31) = (   0.3333325   0.3849006   1.0691104  )
        32           Cu  tau(  32) = (   0.6666675   0.3849006   1.0691104  )
        33           Cu  tau(  33) = (   1.0000000   0.3849003   1.0691143  )
        34           Cu  tau(  34) = (   0.5000000   0.6735762   1.0691130  )
        35           Cu  tau(  35) = (   0.8333334   0.6735753   1.0691143  )
        36           Cu  tau(  36) = (   1.1666666   0.6735753   1.0691143  )
        37           Cu  tau(  37) = (   0.0000000   0.1924486   1.3387540  )
        38           Cu  tau(  38) = (   0.3333330   0.1924499   1.3387465  )
        39           Cu  tau(  39) = (   0.6666670   0.1924499   1.3387465  )
        40           Cu  tau(  40) = (   0.1666676   0.4811247   1.3387504  )
        41           Cu  tau(  41) = (   0.5000000   0.4811256   1.3387465  )
        42           Cu  tau(  42) = (   0.8333324   0.4811247   1.3387504  )
        43           Cu  tau(  43) = (   0.3333346   0.7698011   1.3387540  )
        44           Cu  tau(  44) = (   0.6666654   0.7698011   1.3387540  )
        45           Cu  tau(  45) = (   1.0000000   0.7698014   1.3387504  )
        46           Cu  tau(  46) = (   0.0000000   0.0000000   1.6083750  )
        47           Cu  tau(  47) = (   0.3333333   0.0000005   1.6083624  )
        48           Cu  tau(  48) = (   0.6666667   0.0000005   1.6083624  )
        49           Cu  tau(  49) = (   0.1666671   0.2886748   1.6083624  )
        50           Cu  tau(  50) = (   0.5000000   0.2886751   1.6083553  )
        51           Cu  tau(  51) = (   0.8333329   0.2886748   1.6083624  )
        52           Cu  tau(  52) = (   0.3333338   0.5773500   1.6083624  )
        53           Cu  tau(  53) = (   0.6666662   0.5773500   1.6083624  )
        54           Cu  tau(  54) = (   1.0000000   0.5773503   1.6083570  )
        55           C   tau(  55) = (   0.6567407   0.3959883   2.1060917  )
        56           C   tau(  56) = (   0.5046394   0.3028152   2.1060916  )
        57           C   tau(  57) = (   0.3478975   0.3879497   2.1060917  )
        58           C   tau(  58) = (   0.3432593   0.5662630   2.1060917  )
        59           C   tau(  59) = (   0.4953606   0.6594361   2.1060916  )
        60           C   tau(  60) = (   0.6521025   0.5743016   2.1060917  )
        61           H   tau(  61) = (   0.7789959   0.3295665   2.1061699  )
        62           H   tau(  62) = (   0.5082587   0.1637263   2.1061700  )
        63           H   tau(  63) = (   0.2292624   0.3152577   2.1061699  )
        64           H   tau(  64) = (   0.2210041   0.6326847   2.1061699  )
        65           H   tau(  65) = (   0.4917413   0.7985249   2.1061700  )
        66           H   tau(  66) = (   0.7707376   0.6469936   2.1061699  )

     number of k points=    10  gaussian smearing, width (Ry)=  0.0200
                       cart. coord. in units 2pi/alat
        k(    1) = (   0.0000000   0.0000000   0.0000000), wk =   0.1250000
        k(    2) = (   0.0000000   0.2886751   0.0000000), wk =   0.2500000
        k(    3) = (   0.0000000  -0.5773503   0.0000000), wk =   0.1250000
        k(    4) = (   0.2500000  -0.7216878   0.0000000), wk =   0.2500000
        k(    5) = (  -0.2500000   0.1443376   0.0000000), wk =   0.2500000
        k(    6) = (   0.2500000   0.1443376   0.0000000), wk =   0.2500000
        k(    7) = (   0.5000000  -0.2886751   0.0000000), wk =   0.1250000
        k(    8) = (  -0.5000000  -0.2886751   0.0000000), wk =   0.1250000
        k(    9) = (  -0.2500000  -0.7216878   0.0000000), wk =   0.2500000
        k(   10) = (  -0.5000000  -0.5773503   0.0000000), wk =   0.2500000

     Dense  grid:  2552337 G-vectors     FFT dimensions: ( 120, 120, 432)

     Smooth grid:   491295 G-vectors     FFT dimensions: (  72,  72, 243)

     Estimated max dynamical RAM per process >       1.14 GB

     Estimated total dynamical RAM >      18.26 GB

     Initial potential from superposition of free atoms
     Check: negative starting charge=   -0.000698

     starting charge 1001.99960, renormalised to 1056.00000

     negative rho (up, down):  7.361E-04 0.000E+00


     %%%%%%%%%%%%%%%%%%%%%%%%%%%%%%%%%%%%%%%%%%%%%%%%%%%%%%%%%%%%%%%%%%%%%%%%
     %                                                                      %
     % You are using vdW-DF, which was implemented by the Thonhauser group. %
     % Please cite the following two papers that made this development      %
     % possible and the two reviews that describe the various versions:     %
     %                                                                      %
     %   T. Thonhauser et al., PRL 115, 136402 (2015).                      %
     %   T. Thonhauser et al., PRB 76, 125112 (2007).                       %
     %   K. Berland et al., Rep. Prog. Phys. 78, 066501 (2015).             %
     %   D.C. Langreth et al., J. Phys.: Condens. Matter 21, 084203 (2009). %
     %                                                                      %
     %                                                                      %
     % If you are calculating the stress with vdW-DF, please also cite:     %
     %                                                                      %
     %   R. Sabatini et al., J. Phys.: Condens. Matter 24, 424209 (2012).   %
     %                                                                      %
     %%%%%%%%%%%%%%%%%%%%%%%%%%%%%%%%%%%%%%%%%%%%%%%%%%%%%%%%%%%%%%%%%%%%%%%%


     Starting wfcs are  732 randomized atomic wfcs

     total cpu time spent up to now is      132.9 secs

     Self-consistent Calculation

     iteration #  1     ecut=    50.00 Ry     beta= 0.30
     Davidson diagonalization with overlap
     ethr =  1.00E-02,  avg # of iterations =  5.1

     negative rho (up, down):  4.600E-04 0.000E+00

     total cpu time spent up to now is     1461.9 secs

     total energy              =  -19143.79606332 Ry
     Harris-Foulkes estimate   =  -22003.18380519 Ry
     estimated scf accuracy    <    5653.33213784 Ry

     iteration #  2     ecut=    50.00 Ry     beta= 0.30
     Davidson diagonalization with overlap
     c_bands:  4 eigenvalues not converged
     ethr =  1.00E-02,  avg # of iterations = 18.9

     negative rho (up, down):  4.884E-04 0.000E+00

     total cpu time spent up to now is     4856.5 secs

     total energy              =  -19213.88002933 Ry
     Harris-Foulkes estimate   =  -38366.70449446 Ry
     estimated scf accuracy    <  282386.51253085 Ry

     iteration #  3     ecut=    50.00 Ry     beta= 0.30
     Davidson diagonalization with overlap
     ethr =  1.00E-02,  avg # of iterations =  7.0

     negative rho (up, down):  5.625E-04 0.000E+00

     total cpu time spent up to now is     6533.2 secs

     total energy              =  -21697.64599324 Ry
     Harris-Foulkes estimate   =  -23274.95797100 Ry
     estimated scf accuracy    <   43654.21794751 Ry

     iteration #  4     ecut=    50.00 Ry     beta= 0.30
     Davidson diagonalization with overlap
     ethr =  1.00E-02,  avg # of iterations =  8.1

     negative rho (up, down):  6.533E-04 0.000E+00

     total cpu time spent up to now is     7734.1 secs

     total energy              =  -21697.41071206 Ry
     Harris-Foulkes estimate   =  -22088.32273697 Ry
     estimated scf accuracy    <    9947.12888669 Ry

     iteration #  5     ecut=    50.00 Ry     beta= 0.30
     Davidson diagonalization with overlap
     ethr =  1.00E-02,  avg # of iterations =  6.0

     negative rho (up, down):  6.350E-04 0.000E+00

     total cpu time spent up to now is     9251.3 secs

     total energy              =  -21775.83251789 Ry
     Harris-Foulkes estimate   =  -22119.82478885 Ry
     estimated scf accuracy    <    4871.07373535 Ry

     iteration #  6     ecut=    50.00 Ry     beta= 0.30
     Davidson diagonalization with overlap
     ethr =  1.00E-02,  avg # of iterations =  5.3

     negative rho (up, down):  7.369E-04 0.000E+00

     total cpu time spent up to now is    10376.0 secs

     total energy              =  -21893.01646855 Ry
     Harris-Foulkes estimate   =  -21964.32707013 Ry
     estimated scf accuracy    <    1346.16655965 Ry

     iteration #  7     ecut=    50.00 Ry     beta= 0.30
     Davidson diagonalization with overlap
     ethr =  1.00E-02,  avg # of iterations =  2.1

     negative rho (up, down):  8.727E-04 0.000E+00

     total cpu time spent up to now is    10696.4 secs

     total energy              =  -21912.97491646 Ry
     Harris-Foulkes estimate   =  -21931.97728055 Ry
     estimated scf accuracy    <     117.83370870 Ry

     iteration #  8     ecut=    50.00 Ry     beta= 0.30
     Davidson diagonalization with overlap
     ethr =  1.00E-02,  avg # of iterations =  1.0

     negative rho (up, down):  1.009E-03 0.000E+00

     total cpu time spent up to now is    10973.4 secs

     total energy              =  -21911.94930608 Ry
     Harris-Foulkes estimate   =  -21918.16603465 Ry
     estimated scf accuracy    <      62.92948409 Ry

     iteration #  9     ecut=    50.00 Ry     beta= 0.30
     Davidson diagonalization with overlap
     ethr =  5.96E-03,  avg # of iterations =  3.0

     negative rho (up, down):  1.098E-03 0.000E+00

     total cpu time spent up to now is    11322.1 secs

     total energy              =  -21910.26175314 Ry
     Harris-Foulkes estimate   =  -21913.80974593 Ry
     estimated scf accuracy    <     127.02608537 Ry

     iteration # 10     ecut=    50.00 Ry     beta= 0.30
     Davidson diagonalization with overlap
     ethr =  5.96E-03,  avg # of iterations =  1.4

     negative rho (up, down):  1.868E-03 0.000E+00

     total cpu time spent up to now is    11612.5 secs

     total energy              =  -21896.86868394 Ry
     Harris-Foulkes estimate   =  -21911.05748328 Ry
     estimated scf accuracy    <      63.82232039 Ry

     iteration # 11     ecut=    50.00 Ry     beta= 0.30
     Davidson diagonalization with overlap
     ethr =  5.96E-03,  avg # of iterations =  5.3

     negative rho (up, down):  4.148E-05 0.000E+00

     total cpu time spent up to now is    12240.4 secs

     total energy              =  -21899.12977474 Ry
     Harris-Foulkes estimate   =  -21915.96198940 Ry
     estimated scf accuracy    <     310.74055602 Ry

     iteration # 12     ecut=    50.00 Ry     beta= 0.30
     Davidson diagonalization with overlap
     ethr =  5.96E-03,  avg # of iterations =  2.0

     negative rho (up, down):  4.586E-05 0.000E+00

     total cpu time spent up to now is    12554.0 secs

     total energy              =  -21898.74166733 Ry
     Harris-Foulkes estimate   =  -21907.61575052 Ry
     estimated scf accuracy    <     107.80278108 Ry

     iteration # 13     ecut=    50.00 Ry     beta= 0.30
     Davidson diagonalization with overlap
     ethr =  5.96E-03,  avg # of iterations =  3.1

     negative rho (up, down):  1.864E-05 0.000E+00

     total cpu time spent up to now is    12914.8 secs

     total energy              =  -21903.90750007 Ry
     Harris-Foulkes estimate   =  -21904.18066029 Ry
     estimated scf accuracy    <       6.52468880 Ry

     iteration # 14     ecut=    50.00 Ry     beta= 0.30
     Davidson diagonalization with overlap
     ethr =  6.18E-04,  avg # of iterations =  5.7

     negative rho (up, down):  7.547E-06 0.000E+00

     total cpu time spent up to now is    13464.5 secs

     total energy              =  -21904.05456348 Ry
     Harris-Foulkes estimate   =  -21904.63426228 Ry
     estimated scf accuracy    <       7.02638211 Ry

     iteration # 15     ecut=    50.00 Ry     beta= 0.30
     Davidson diagonalization with overlap
     ethr =  6.18E-04,  avg # of iterations =  1.1

     negative rho (up, down):  6.893E-06 0.000E+00

     total cpu time spent up to now is    13740.6 secs

     total energy              =  -21903.95752849 Ry
     Harris-Foulkes estimate   =  -21904.14527205 Ry
     estimated scf accuracy    <       5.20680652 Ry

     iteration # 16     ecut=    50.00 Ry     beta= 0.30
     Davidson diagonalization with overlap
     ethr =  4.93E-04,  avg # of iterations =  1.3

     negative rho (up, down):  9.143E-06 0.000E+00

     total cpu time spent up to now is    14030.6 secs

     total energy              =  -21903.81384798 Ry
     Harris-Foulkes estimate   =  -21904.02296739 Ry
     estimated scf accuracy    <       2.49321380 Ry

     iteration # 17     ecut=    50.00 Ry     beta= 0.30
     Davidson diagonalization with overlap
     ethr =  2.36E-04,  avg # of iterations =  5.9

     negative rho (up, down):  1.318E-05 0.000E+00

     total cpu time spent up to now is    14489.1 secs

     total energy              =  -21903.81005934 Ry
     Harris-Foulkes estimate   =  -21903.86621269 Ry
     estimated scf accuracy    <       1.44149010 Ry

     iteration # 18     ecut=    50.00 Ry     beta= 0.30
     Davidson diagonalization with overlap
     ethr =  1.37E-04,  avg # of iterations =  1.4

     negative rho (up, down):  3.432E-05 0.000E+00

     total cpu time spent up to now is    14781.0 secs

     total energy              =  -21903.80041952 Ry
     Harris-Foulkes estimate   =  -21903.82904998 Ry
     estimated scf accuracy    <       0.93071113 Ry

     iteration # 19     ecut=    50.00 Ry     beta= 0.30
     Davidson diagonalization with overlap
     ethr =  8.81E-05,  avg # of iterations =  7.3

     negative rho (up, down):  6.924E-05 0.000E+00

     total cpu time spent up to now is    15280.7 secs

     total energy              =  -21903.78084419 Ry
     Harris-Foulkes estimate   =  -21903.80980030 Ry
     estimated scf accuracy    <       0.97246797 Ry

     iteration # 20     ecut=    50.00 Ry     beta= 0.30
     Davidson diagonalization with overlap
     ethr =  8.81E-05,  avg # of iterations =  2.6

     negative rho (up, down):  2.756E-04 0.000E+00

     total cpu time spent up to now is    15614.1 secs

     total energy              =  -21903.75487339 Ry
     Harris-Foulkes estimate   =  -21903.78769149 Ry
     estimated scf accuracy    <       0.32466579 Ry

     iteration # 21     ecut=    50.00 Ry     beta= 0.30
     Davidson diagonalization with overlap
     ethr =  3.07E-05,  avg # of iterations =  7.2

     negative rho (up, down):  4.855E-04 0.000E+00

     total cpu time spent up to now is    16171.2 secs

     total energy              =  -21903.76537016 Ry
     Harris-Foulkes estimate   =  -21903.77079561 Ry
     estimated scf accuracy    <       0.03437220 Ry

     iteration # 22     ecut=    50.00 Ry     beta= 0.30
     Davidson diagonalization with overlap
     ethr =  3.25E-06,  avg # of iterations =  7.1

     negative rho (up, down):  7.186E-04 0.000E+00

     total cpu time spent up to now is    16690.2 secs

     total energy              =  -21903.76691973 Ry
     Harris-Foulkes estimate   =  -21903.76760308 Ry
     estimated scf accuracy    <       0.00527237 Ry

     iteration # 23     ecut=    50.00 Ry     beta= 0.30
     Davidson diagonalization with overlap
     ethr =  4.99E-07,  avg # of iterations =  5.2

     negative rho (up, down):  8.836E-04 0.000E+00

     total cpu time spent up to now is    17141.3 secs

     total energy              =  -21903.76734599 Ry
     Harris-Foulkes estimate   =  -21903.76745970 Ry
     estimated scf accuracy    <       0.00202112 Ry

     iteration # 24     ecut=    50.00 Ry     beta= 0.30
     Davidson diagonalization with overlap
     ethr =  1.91E-07,  avg # of iterations =  3.3

     negative rho (up, down):  1.346E-03 0.000E+00

     total cpu time spent up to now is    17498.9 secs

     total energy              =  -21903.76761687 Ry
     Harris-Foulkes estimate   =  -21903.76751801 Ry
     estimated scf accuracy    <       0.00127102 Ry

     iteration # 25     ecut=    50.00 Ry     beta= 0.30
     Davidson diagonalization with overlap
     ethr =  1.20E-07,  avg # of iterations =  8.8

     negative rho (up, down):  1.616E-03 0.000E+00

     total cpu time spent up to now is    18096.4 secs

     total energy              =  -21903.76771963 Ry
     Harris-Foulkes estimate   =  -21903.76767556 Ry
     estimated scf accuracy    <       0.00006999 Ry

     iteration # 26     ecut=    50.00 Ry     beta= 0.30
     Davidson diagonalization with overlap
     ethr =  6.63E-09,  avg # of iterations =  4.7

     negative rho (up, down):  1.809E-03 0.000E+00

     total cpu time spent up to now is    18607.8 secs

     total energy              =  -21903.76774766 Ry
     Harris-Foulkes estimate   =  -21903.76773336 Ry
     estimated scf accuracy    <       0.00004475 Ry

     iteration # 27     ecut=    50.00 Ry     beta= 0.30
     Davidson diagonalization with overlap
     ethr =  4.24E-09,  avg # of iterations =  3.3

     negative rho (up, down):  1.849E-03 0.000E+00

     total cpu time spent up to now is    18965.5 secs

     total energy              =  -21903.76775205 Ry
     Harris-Foulkes estimate   =  -21903.76775257 Ry
     estimated scf accuracy    <       0.00002267 Ry

     iteration # 28     ecut=    50.00 Ry     beta= 0.30
     Davidson diagonalization with overlap
     ethr =  2.15E-09,  avg # of iterations =  1.3

     negative rho (up, down):  2.049E-03 0.000E+00

     total cpu time spent up to now is    19242.5 secs

     total energy              =  -21903.76776064 Ry
     Harris-Foulkes estimate   =  -21903.76775568 Ry
     estimated scf accuracy    <       0.00003106 Ry

     iteration # 29     ecut=    50.00 Ry     beta= 0.30
     Davidson diagonalization with overlap
     ethr =  2.15E-09,  avg # of iterations =  3.2

     negative rho (up, down):  2.209E-03 0.000E+00

     total cpu time spent up to now is    19590.0 secs

     total energy              =  -21903.76776341 Ry
     Harris-Foulkes estimate   =  -21903.76776280 Ry
     estimated scf accuracy    <       0.00001197 Ry

     iteration # 30     ecut=    50.00 Ry     beta= 0.30
     Davidson diagonalization with overlap
     ethr =  1.13E-09,  avg # of iterations =  2.3

     negative rho (up, down):  2.234E-03 0.000E+00

     total cpu time spent up to now is    19912.8 secs

     total energy              =  -21903.76776392 Ry
     Harris-Foulkes estimate   =  -21903.76776411 Ry
     estimated scf accuracy    <       0.00000103 Ry

     iteration # 31     ecut=    50.00 Ry     beta= 0.30
     Davidson diagonalization with overlap
     ethr =  9.79E-11,  avg # of iterations =  2.2

     negative rho (up, down):  2.265E-03 0.000E+00

     total cpu time spent up to now is    20313.0 secs

     total energy              =  -21903.76776381 Ry
     Harris-Foulkes estimate   =  -21903.76776412 Ry
     estimated scf accuracy    <       0.00000138 Ry

     iteration # 32     ecut=    50.00 Ry     beta= 0.30
     Davidson diagonalization with overlap
     ethr =  9.79E-11,  avg # of iterations =  2.0

     negative rho (up, down):  2.279E-03 0.000E+00

     total cpu time spent up to now is    20726.5 secs

     total energy              =  -21903.76776378 Ry
     Harris-Foulkes estimate   =  -21903.76776391 Ry
     estimated scf accuracy    <       0.00000041 Ry

     iteration # 33     ecut=    50.00 Ry     beta= 0.30
     Davidson diagonalization with overlap
     ethr =  3.90E-11,  avg # of iterations =  2.0

     negative rho (up, down):  2.281E-03 0.000E+00

     total cpu time spent up to now is    21138.1 secs

     total energy              =  -21903.76776379 Ry
     Harris-Foulkes estimate   =  -21903.76776381 Ry
     estimated scf accuracy    <       0.00000013 Ry

     iteration # 34     ecut=    50.00 Ry     beta= 0.30
     Davidson diagonalization with overlap
     ethr =  1.19E-11,  avg # of iterations =  2.0

     negative rho (up, down):  2.291E-03 0.000E+00

     total cpu time spent up to now is    21546.4 secs

     total energy              =  -21903.76776369 Ry
     Harris-Foulkes estimate   =  -21903.76776380 Ry
     estimated scf accuracy    <       0.00000004 Ry

     iteration # 35     ecut=    50.00 Ry     beta= 0.30
     Davidson diagonalization with overlap
     ethr =  3.98E-12,  avg # of iterations =  2.4

     negative rho (up, down):  2.289E-03 0.000E+00

     total cpu time spent up to now is    21907.0 secs

     total energy              =  -21903.76776371 Ry
     Harris-Foulkes estimate   =  -21903.76776369 Ry
     estimated scf accuracy    <       0.00000013 Ry

     iteration # 36     ecut=    50.00 Ry     beta= 0.30
     Davidson diagonalization with overlap
     ethr =  3.98E-12,  avg # of iterations =  1.4

     negative rho (up, down):  2.289E-03 0.000E+00

     total cpu time spent up to now is    22214.2 secs

     End of self-consistent calculation

          k = 0.0000 0.0000 0.0000 ( 61453 PWs)   bands (ev):

  -107.8950-107.8900-107.8887-107.8886-107.8886-107.8883-107.8883-107.8879
  -107.8861-107.8850-107.8850-107.8850-107.8849-107.8844-107.8844-107.8841
  -107.8837-107.8834-107.8814-107.8791-107.8791-107.8791-107.8785-107.8785
  -107.8784-107.8762-107.8762-107.8744-107.8702-107.8697-107.8697-107.8697
  -107.8697-107.8692-107.8674-107.8671-107.6524-107.6482-107.6482-107.6482
  -107.6468-107.6468-107.6445-107.6424-107.6424-107.6358-107.6307-107.6307
  -107.6307-107.6306-107.6306-107.6306-107.6281-107.6281 -65.3495 -65.3362
   -65.3359 -65.3359 -65.3356 -65.3356 -65.3352 -65.3282 -65.3282 -65.3282
   -65.3279 -65.3279 -65.3276 -65.3276 -65.3274 -65.3242 -65.3242 -65.3240
   -65.3239 -65.3219 -65.3162 -65.3162 -65.3161 -65.3156 -65.3155 -65.3155
   -65.3136 -65.3135 -65.3135 -65.3133 -65.3133 -65.3130 -65.3128 -65.3128
   -65.3103 -65.3103 -65.3098 -65.3097 -65.3041 -65.3041 -65.3041 -65.3037
   -65.3037 -65.3037 -65.3028 -65.3028 -65.2993 -65.2993 -65.2972 -65.2962
   -65.2960 -65.2958 -65.2958 -65.2958 -65.2958 -65.2956 -65.2943 -65.2889
   -65.2889 -65.2878 -65.2878 -65.2878 -65.2875 -65.2875 -65.2875 -65.2857
   -65.2857 -65.2856 -65.2851 -65.2848 -65.2848 -65.2843 -65.2843 -65.2816
   -65.2816 -65.2779 -65.2776 -65.2776 -65.2774 -65.2774 -65.2773 -65.2773
   -65.2773 -65.2770 -65.2768 -65.2766 -65.2766 -65.2741 -65.2712 -65.2712
   -65.2708 -65.2707 -65.2707 -65.2706 -65.2705 -65.2705 -65.2648 -65.2648
   -65.2631 -65.2631 -65.2630 -65.2628 -65.2627 -65.2627 -65.2588 -65.2588
   -65.2521 -65.2521 -65.1054 -65.1051 -65.1051 -65.1040 -65.1040 -65.1039
   -65.1014 -65.1013 -65.1013 -65.1000 -65.0900 -65.0900 -65.0900 -65.0900
   -65.0899 -65.0899 -65.0874 -65.0874 -65.0871 -65.0869 -65.0702 -65.0695
   -65.0695 -65.0683 -65.0683 -65.0676 -65.0565 -65.0565 -65.0547 -65.0547
   -65.0546 -65.0546 -65.0546 -65.0545 -65.0424 -65.0424 -65.0274 -65.0237
   -65.0236 -65.0236 -65.0222 -65.0222 -65.0193 -65.0173 -65.0173 -65.0079
   -65.0031 -65.0031 -65.0031 -65.0030 -65.0030 -65.0030 -65.0007 -65.0007
   -12.4901  -9.7498  -9.7496  -6.1638  -6.1633  -4.2418  -4.1596  -3.5386
    -2.6524  -2.5867  -2.2468  -1.6028  -1.6027  -1.4563  -1.1943  -1.1941
    -1.1941  -1.1940  -1.1940  -1.1939  -0.7898  -0.7893  -0.7893  -0.7893
    -0.7891  -0.7891  -0.6010  -0.3535  -0.2912  -0.2887  -0.2886  -0.2886
    -0.2885  -0.2885  -0.2657   0.1620   0.1620   0.1621   0.1621   0.1622
     0.1639   0.3309   0.3312   0.5120   0.5120   0.5123   0.5125   0.5125
     0.5133   0.6369   0.6369   0.6370   0.6370   0.6370   0.6372   0.6866
     0.6866   0.6867   0.6868   0.6868   0.6870   0.7144   0.7144   0.7283
     0.7283   0.7400   0.7401   0.8357   0.8357   0.8431   0.8431   0.8655
     0.8655   0.8656   0.8657   0.8657   0.8660   0.8733   0.8733   0.8744
     0.8744   0.9263   0.9263   0.9661   0.9661   1.0753   1.0753   1.0790
     1.0790   1.0792   1.0793   1.0793   1.0798   1.1108   1.1108   1.3149
     1.3149   1.3153   1.3156   1.3156   1.3164   1.4439   1.4439   1.4519
     1.4519   1.4672   1.4672   1.4675   1.4675   1.4676   1.4680   1.5055
     1.5123   1.5124   1.5256   1.5805   1.5805   1.5809   1.5810   1.5810
     1.5812   1.5939   1.5939   1.6187   1.6187   1.6507   1.6552   1.6552
     1.6668   1.6668   1.6675   1.6675   1.6675   1.6678   1.7051   1.7051
     1.7186   1.7186   1.7188   1.7188   1.7188   1.7190   1.7376   1.7377
     1.7377   1.7380   1.7380   1.7380   1.7438   1.7438   1.7615   1.8652
     1.8652   1.8676   1.8676   1.8696   1.8696   1.8699   1.8707   1.8823
     1.8823   1.8963   1.8965   1.9135   1.9135   1.9142   1.9142   1.9385
     1.9385   1.9400   1.9401   1.9401   1.9404   1.9404   1.9404   2.1208
     2.1209   2.1349   2.1351   2.1351   2.1369   2.1989   2.1991   2.1991
     2.1993   2.1993   2.1994   2.2446   2.2446   2.2669   2.2669   2.2670
     2.2684   2.2738   2.2738   2.2781   2.2781   2.2999   2.2999   2.3373
     2.3661   2.3661   2.3699   2.3699   2.3959   2.3959   2.4052   2.4054
     2.4054   2.4066   2.4295   2.4295   2.4295   2.4299   2.4299   2.4299
     2.4317   2.4317   2.4332   2.4332   2.4453   2.4454   2.5041   2.5041
     2.5682   2.5683   2.5683   2.5684   2.5684   2.5684   2.6262   2.6266
     2.6266   2.6272   2.6273   2.6273   2.6275   2.6275   2.6275   2.6278
     2.6325   2.6326   2.6927   2.6927   2.6964   2.6964   2.6965   2.6967
     2.6968   2.6968   2.7078   2.7078   2.7078   2.7081   2.7081   2.7081
     2.7325   2.7325   2.7325   2.7327   2.7327   2.7328   2.7664   2.7664
     2.7730   2.7730   2.8041   2.8043   2.8043   2.8047   2.8048   2.8048
     2.8060   2.8061   2.8282   2.8284   2.8284   2.8286   2.8286   2.8288
     2.8574   2.8574   2.8588   2.8588   2.8616   2.8616   2.8797   2.8798
     2.8960   2.8961   2.8961   2.8963   2.8963   2.8964   2.9226   2.9228
     2.9228   2.9230   2.9230   2.9260   2.9389   2.9389   2.9726   2.9727
     2.9727   2.9730   2.9730   2.9730   3.7855   3.9069   3.9070   3.9070
     3.9156   3.9227   3.9227   4.3685   5.3403   5.3404   5.3424   5.3542
     5.3647   5.3647   7.0636   7.0637   7.0660   7.1203   7.1704   7.1704
     7.2548   7.5231   7.5233   7.7651   7.7652   7.7655   7.7655   7.7807
     7.7807   8.1564   8.1596   8.1596   8.1782   8.1782   8.5186   8.5801
     8.5806   8.7744   8.8376   8.8379   8.8531   8.8531   8.9327   8.9327
     8.9733   9.1731   9.4520   9.4520   9.4579   9.4579   9.4945   9.7878
     9.7879   9.8367   9.8367   9.8796  10.5051  10.5545  10.6219  10.6219
    10.6287  10.6287  10.7618  10.7618  10.8116  10.8116  10.8208  11.0333
    11.1944  11.1944  11.2642  11.2642  11.2706  11.2855  11.2855  11.3337
    11.3950  11.7097  11.7097  11.7752  11.7766  11.7766  11.8298  11.8298
    11.8420  11.8420  11.8427  11.9373  11.9374  12.0008  12.0911  12.1980
    12.1980  12.2300  12.2919  12.2919  12.3315  12.4562  12.4563  12.6734
    12.9225  12.9269  12.9271  12.9644  12.9722  12.9751  12.9752  13.0217
    13.0604  13.0743

          k = 0.0000 0.2887 0.0000 ( 61417 PWs)   bands (ev):

  -107.8945-107.8909-107.8896-107.8893-107.8889-107.8875-107.8872-107.8867
  -107.8864-107.8856-107.8855-107.8849-107.8849-107.8846-107.8843-107.8837
  -107.8834-107.8833-107.8814-107.8804-107.8794-107.8793-107.8780-107.8780
  -107.8775-107.8764-107.8764-107.8740-107.8713-107.8703-107.8703-107.8690
  -107.8689-107.8684-107.8676-107.8673-107.6520-107.6493-107.6484-107.6478
  -107.6466-107.6466-107.6444-107.6424-107.6424-107.6353-107.6324-107.6313
  -107.6313-107.6298-107.6298-107.6294-107.6283-107.6283 -65.3480 -65.3389
   -65.3384 -65.3372 -65.3361 -65.3360 -65.3355 -65.3354 -65.3323 -65.3322
   -65.3315 -65.3315 -65.3296 -65.3296 -65.3250 -65.3235 -65.3235 -65.3214
   -65.3209 -65.3198 -65.3197 -65.3197 -65.3195 -65.3193 -65.3172 -65.3172
   -65.3169 -65.3167 -65.3126 -65.3125 -65.3095 -65.3094 -65.3092 -65.3081
   -65.3080 -65.3074 -65.3067 -65.3067 -65.3046 -65.3045 -65.3021 -65.3021
   -65.2988 -65.2985 -65.2984 -65.2981 -65.2972 -65.2972 -65.2965 -65.2954
   -65.2952 -65.2941 -65.2939 -65.2926 -65.2924 -65.2923 -65.2916 -65.2908
   -65.2907 -65.2888 -65.2886 -65.2885 -65.2884 -65.2882 -65.2881 -65.2856
   -65.2856 -65.2834 -65.2833 -65.2827 -65.2827 -65.2811 -65.2810 -65.2807
   -65.2802 -65.2800 -65.2800 -65.2797 -65.2795 -65.2794 -65.2794 -65.2777
   -65.2777 -65.2759 -65.2758 -65.2754 -65.2747 -65.2741 -65.2737 -65.2736
   -65.2735 -65.2729 -65.2723 -65.2701 -65.2700 -65.2684 -65.2668 -65.2667
   -65.2667 -65.2658 -65.2655 -65.2632 -65.2632 -65.2624 -65.2598 -65.2593
   -65.2562 -65.2531 -65.1159 -65.1105 -65.1105 -65.1088 -65.1086 -65.1015
   -65.0971 -65.0970 -65.0959 -65.0958 -65.0947 -65.0947 -65.0914 -65.0913
   -65.0882 -65.0828 -65.0827 -65.0771 -65.0770 -65.0742 -65.0734 -65.0729
   -65.0717 -65.0688 -65.0686 -65.0648 -65.0607 -65.0587 -65.0586 -65.0576
   -65.0576 -65.0546 -65.0545 -65.0506 -65.0467 -65.0435 -65.0271 -65.0246
   -65.0238 -65.0232 -65.0221 -65.0221 -65.0193 -65.0173 -65.0173 -65.0075
   -65.0047 -65.0037 -65.0037 -65.0023 -65.0023 -65.0019 -65.0009 -65.0009
   -12.4893  -9.7534  -9.7503  -6.1666  -6.1591  -4.2155  -3.9462  -3.3294
    -2.6249  -2.3857  -2.3431  -2.2504  -1.7944  -1.6512  -1.6326  -1.6321
    -1.6094  -1.2683  -1.1477  -1.1473  -0.9923  -0.5760  -0.5760  -0.4886
    -0.4837  -0.4485  -0.3648  -0.3163  -0.2895  -0.2887  -0.1543  -0.1212
    -0.1167  -0.0190  -0.0144  -0.0142   0.1622   0.1633   0.1920   0.2575
     0.2578   0.2910   0.3314   0.4418   0.4464   0.4761   0.4761   0.5029
     0.5121   0.5121   0.5363   0.5364   0.5833   0.5840   0.5856   0.5860
     0.5986   0.5986   0.6385   0.6385   0.6755   0.6755   0.7037   0.7037
     0.7126   0.7545   0.7547   0.7693   0.7693   0.7919   0.7920   0.8047
     0.8048   0.8390   0.8391   0.8792   0.9479   0.9479   0.9548   0.9783
     0.9783   0.9928   0.9930   1.0291   1.0292   1.0632   1.0660   1.0660
     1.1280   1.1280   1.1546   1.1552   1.1757   1.1757   1.2208   1.2209
     1.2378   1.2577   1.2647   1.2649   1.2930   1.3327   1.3328   1.3528
     1.3528   1.3592   1.3968   1.3976   1.4075   1.4327   1.4328   1.4396
     1.4726   1.4727   1.5018   1.5385   1.5503   1.5609   1.5609   1.5737
     1.5740   1.5742   1.6124   1.6132   1.6180   1.6305   1.6306   1.6460
     1.6515   1.6515   1.6679   1.6711   1.6818   1.6887   1.7007   1.7096
     1.7097   1.7198   1.7247   1.7253   1.7264   1.7440   1.7444   1.7475
     1.7475   1.7517   1.7719   1.7743   1.7852   1.7971   1.7977   1.8063
     1.8077   1.8216   1.8219   1.8579   1.8580   1.8667   1.8669   1.8682
     1.8825   1.8913   1.8913   1.8922   1.9029   1.9038   1.9082   1.9228
     1.9609   1.9660   1.9710   1.9753   1.9775   1.9777   1.9886   2.0019
     2.0061   2.0070   2.0089   2.0308   2.0309   2.0445   2.0797   2.0821
     2.1133   2.1140   2.1229   2.1231   2.1289   2.1289   2.1918   2.2074
     2.2327   2.2343   2.2419   2.2420   2.2548   2.2549   2.2689   2.2832
     2.2884   2.2949   2.2965   2.3031   2.3238   2.3257   2.3514   2.3521
     2.3658   2.3731   2.3738   2.3824   2.3860   2.4081   2.4135   2.4145
     2.4204   2.4279   2.4505   2.4646   2.4670   2.4724   2.4726   2.4898
     2.4941   2.4944   2.5106   2.5143   2.5144   2.5155   2.5234   2.5271
     2.5519   2.5621   2.5989   2.6023   2.6085   2.6365   2.6372   2.6451
     2.6484   2.6487   2.6496   2.6524   2.6732   2.6733   2.6764   2.6885
     2.6903   2.6934   2.6966   2.6976   2.7230   2.7417   2.7417   2.7465
     2.7559   2.7560   2.7776   2.7780   2.7841   2.7850   2.8281   2.8290
     2.8290   2.8400   2.8400   2.8418   2.8531   2.8539   2.8624   2.8641
     2.8641   2.8654   2.8725   2.8726   2.8735   2.8798   2.8881   2.8881
     2.9055   2.9185   2.9186   2.9193   2.9205   2.9267   2.9281   2.9282
     2.9502   2.9596   2.9643   2.9702   2.9703   2.9752   2.9879   2.9881
     3.0644   3.0774   3.1146   3.2134   3.2358   3.2359   3.3081   3.3965
     3.3965   3.6502   3.7032   3.7040   3.7069   3.7127   4.0159   4.1971
     4.3916   4.6787   4.6791   4.8810   4.9763   4.9830   5.0279   5.7623
     5.7623   5.9764   6.1381   6.1430   6.1617   6.1620   6.4159   6.6685
     6.6992   6.8443   6.8469   7.2736   7.4450   7.4474   7.4853   7.6621
     7.6968   7.7046   7.8927   7.9401   8.1565   8.1599   8.2544   8.3030
     8.3533   8.6307   8.6316   8.7571   8.8037   8.9045   9.1820   9.1828
     9.2916   9.3493   9.5522   9.5784   9.7537   9.7869   9.9075   9.9307
     9.9386   9.9642   9.9924  10.0437  10.2588  10.3323  10.3327  10.4574
    10.4924  10.4969  10.5850  10.5906  10.6720  10.7159  10.7183  10.7893
    10.8559  10.8815  10.8941  11.0986  11.1070  11.2000  11.3888  11.4184
    11.4256  11.4620  11.4715  11.5623  11.6559  11.7437  11.8941  11.9863
    12.0378  12.1267  12.1774  12.2649  12.2815  12.3750  12.4787  12.5081
    12.5139  12.5594  12.5644  12.6513  12.7848  12.7863  12.8296  12.8495
    12.9446  12.9591  13.0752  13.0949  13.1412  13.1701  13.1763  13.2682
    13.3816  13.4566

          k = 0.0000-0.5774 0.0000 ( 61408 PWs)   bands (ev):

  -107.8932-107.8927-107.8898-107.8896-107.8884-107.8876-107.8866-107.8862
  -107.8859-107.8859-107.8857-107.8856-107.8854-107.8844-107.8838-107.8837
  -107.8835-107.8823-107.8819-107.8813-107.8796-107.8796-107.8774-107.8774
  -107.8772-107.8768-107.8767-107.8730-107.8726-107.8705-107.8705-107.8685
  -107.8681-107.8681-107.8681-107.8675-107.6513-107.6504-107.6485-107.6478
  -107.6465-107.6463-107.6443-107.6425-107.6423-107.6341-107.6341-107.6315
  -107.6315-107.6290-107.6290-107.6290-107.6289-107.6289 -65.3442 -65.3439
   -65.3415 -65.3401 -65.3361 -65.3361 -65.3349 -65.3349 -65.3344 -65.3343
   -65.3333 -65.3331 -65.3330 -65.3328 -65.3291 -65.3226 -65.3221 -65.3221
   -65.3216 -65.3215 -65.3214 -65.3213 -65.3204 -65.3202 -65.3179 -65.3178
   -65.3175 -65.3174 -65.3103 -65.3102 -65.3091 -65.3090 -65.3087 -65.3085
   -65.3071 -65.3035 -65.3034 -65.3003 -65.2997 -65.2997 -65.2996 -65.2994
   -65.2993 -65.2987 -65.2967 -65.2966 -65.2961 -65.2960 -65.2958 -65.2957
   -65.2927 -65.2926 -65.2926 -65.2918 -65.2917 -65.2915 -65.2913 -65.2899
   -65.2867 -65.2865 -65.2861 -65.2861 -65.2859 -65.2854 -65.2852 -65.2852
   -65.2852 -65.2851 -65.2850 -65.2846 -65.2821 -65.2820 -65.2817 -65.2816
   -65.2811 -65.2807 -65.2790 -65.2789 -65.2781 -65.2779 -65.2779 -65.2777
   -65.2766 -65.2764 -65.2762 -65.2757 -65.2747 -65.2746 -65.2746 -65.2740
   -65.2740 -65.2737 -65.2737 -65.2707 -65.2706 -65.2705 -65.2704 -65.2690
   -65.2685 -65.2669 -65.2666 -65.2665 -65.2646 -65.2645 -65.2629 -65.2626
   -65.2558 -65.2555 -65.1200 -65.1127 -65.1127 -65.1115 -65.1112 -65.1057
   -65.0978 -65.0978 -65.0978 -65.0977 -65.0935 -65.0933 -65.0819 -65.0816
   -65.0804 -65.0802 -65.0791 -65.0791 -65.0734 -65.0729 -65.0723 -65.0697
   -65.0690 -65.0667 -65.0667 -65.0667 -65.0666 -65.0614 -65.0599 -65.0587
   -65.0583 -65.0583 -65.0556 -65.0555 -65.0465 -65.0465 -65.0265 -65.0255
   -65.0238 -65.0232 -65.0220 -65.0219 -65.0192 -65.0174 -65.0172 -65.0063
   -65.0063 -65.0039 -65.0039 -65.0016 -65.0015 -65.0015 -65.0014 -65.0014
   -12.4885  -9.7569  -9.7511  -6.1699  -6.1545  -4.1886  -3.3206  -3.3204
    -2.7213  -2.7211  -2.5971  -2.2541  -1.8135  -1.8117  -1.7879  -1.7879
    -1.6971  -1.6168  -1.2774  -1.2770  -0.7585  -0.7486  -0.5573  -0.5545
    -0.3362  -0.1754   0.0084   0.0108   0.0220   0.0286   0.0287   0.0288
     0.0289   0.1165   0.1897   0.1899   0.1980   0.2006   0.2079   0.2267
     0.2267   0.2267   0.2268   0.2521   0.2828   0.2828   0.2829   0.2830
     0.3315   0.4096   0.4476   0.4477   0.4479   0.4480   0.4881   0.5297
     0.6247   0.6248   0.6249   0.6249   0.6399   0.6621   0.6628   0.6793
     0.6793   0.6794   0.6794   0.7988   0.7989   0.7990   0.7990   0.8216
     0.8218   0.9108   0.9233   0.9233   0.9233   0.9233   0.9589   0.9589
     1.0036   1.0036   1.0752   1.0752   1.0754   1.0754   1.1356   1.1356
     1.1648   1.1651   1.1861   1.1862   1.1865   1.1866   1.2033   1.2033
     1.2399   1.2413   1.2921   1.3041   1.3044   1.3324   1.3327   1.3533
     1.3540   1.3617   1.3618   1.3620   1.3621   1.4187   1.4192   1.4237
     1.4237   1.4241   1.4241   1.4749   1.4765   1.4983   1.4984   1.4984
     1.4986   1.5082   1.5098   1.5098   1.5690   1.5716   1.5935   1.5947
     1.5953   1.6107   1.6131   1.6456   1.6463   1.6464   1.6466   1.6466
     1.6603   1.6621   1.7096   1.7098   1.7200   1.7202   1.7330   1.7331
     1.7676   1.7678   1.7678   1.7679   1.7905   1.7910   1.7915   1.7916
     1.7923   1.8213   1.8214   1.8218   1.8220   1.8531   1.8533   1.8733
     1.8826   1.8828   1.9447   1.9454   1.9513   1.9515   1.9555   1.9556
     1.9562   1.9562   1.9648   1.9656   1.9717   1.9718   1.9814   1.9984
     1.9994   2.0069   2.0072   2.0076   2.0079   2.0749   2.0787   2.0872
     2.0873   2.1533   2.1688   2.1698   2.1700   2.1703   2.1761   2.1783
     2.1785   2.1793   2.1837   2.1841   2.2081   2.2103   2.2261   2.2485
     2.2497   2.2497   2.2518   2.2692   2.2693   2.2694   2.2694   2.2728
     2.2737   2.2952   2.2954   2.3021   2.3025   2.3258   2.3617   2.3794
     2.4254   2.4254   2.4278   2.4532   2.4532   2.4539   2.4547   2.4855
     2.4863   2.4896   2.5029   2.5254   2.5261   2.5290   2.5291   2.5394
     2.5527   2.5599   2.5658   2.5659   2.5660   2.5661   2.5789   2.5998
     2.5998   2.6010   2.6024   2.6555   2.6556   2.6559   2.6562   2.6663
     2.6670   2.6926   2.6929   2.7226   2.7227   2.7258   2.7264   2.7533
     2.7533   2.7786   2.7811   2.7841   2.8023   2.8421   2.8436   2.8538
     2.8544   2.8636   2.8640   2.8778   2.8915   2.8916   2.8960   2.8962
     2.8974   2.8979   2.9132   2.9180   2.9180   2.9183   2.9184   2.9354
     2.9367   2.9369   2.9422   2.9460   2.9620   2.9650   2.9848   2.9849
     2.9853   2.9860   2.9927   2.9988   3.0216   3.0351   3.0351   3.0357
     3.0358   3.1441   3.1564   3.6753   3.6850   3.6873   3.6912   4.2032
     4.2467   4.2467   4.2469   4.2469   4.5175   4.5178   4.5181   4.5182
     4.8680   4.8709   4.8817   4.9864   5.0063   5.0748   5.0762   5.0770
     5.0779   5.3623   5.7016   5.9546   5.9798   5.9804   6.0536   6.0597
     6.0610   6.0635   6.1188   6.5254   6.5600   7.2860   7.3577   7.3706
     7.3711   7.4237   7.6006   7.9606   7.9826   8.0886   8.2286   8.3699
     8.4930   8.4944   8.4956   8.5075   8.8636   8.8867   8.9019   9.1424
     9.1440   9.1441   9.1502   9.2701   9.4603   9.5705   9.6918   9.7666
     9.7707   9.8006   9.8112   9.8479   9.8736  10.2426  10.3223  10.3292
    10.3785  10.4198  10.4436  10.4473  10.4617  10.8077  10.8775  11.0227
    11.1129  11.1937  11.2351  11.2411  11.2968  11.3493  11.3758  11.3865
    11.4627  11.5301  11.6706  12.0231  12.0918  12.1382  12.1557  12.2038
    12.2266  12.2854  12.4378  12.4889  12.7184  12.8179  12.8306  12.9294
    12.9406  12.9810  13.0097  13.0248  13.0448  13.1710  13.1773  13.1887
    13.1931  13.2496  13.2815  13.3452  13.4114  13.5817  13.6180  13.6202
    13.6727  13.7662

          k = 0.2500-0.7217 0.0000 ( 61343 PWs)   bands (ev):

  -107.8935-107.8918-107.8912-107.8887-107.8876-107.8875-107.8872-107.8866
  -107.8863-107.8858-107.8857-107.8853-107.8850-107.8843-107.8841-107.8837
  -107.8835-107.8825-107.8814-107.8811-107.8809-107.8784-107.8780-107.8774
  -107.8772-107.8768-107.8765-107.8732-107.8720-107.8716-107.8693-107.8690
  -107.8684-107.8681-107.8679-107.8674-107.6514-107.6501-107.6489-107.6474
  -107.6465-107.6464-107.6443-107.6425-107.6423-107.6345-107.6330-107.6330
  -107.6301-107.6300-107.6290-107.6290-107.6289-107.6286 -65.3453 -65.3408
   -65.3404 -65.3395 -65.3393 -65.3382 -65.3380 -65.3366 -65.3349 -65.3333
   -65.3331 -65.3320 -65.3292 -65.3273 -65.3269 -65.3269 -65.3267 -65.3242
   -65.3210 -65.3206 -65.3205 -65.3203 -65.3201 -65.3186 -65.3184 -65.3175
   -65.3166 -65.3165 -65.3138 -65.3134 -65.3084 -65.3082 -65.3077 -65.3070
   -65.3045 -65.3043 -65.3035 -65.3033 -65.3031 -65.3001 -65.2996 -65.2994
   -65.2984 -65.2978 -65.2974 -65.2973 -65.2963 -65.2935 -65.2932 -65.2931
   -65.2930 -65.2929 -65.2927 -65.2914 -65.2912 -65.2910 -65.2907 -65.2892
   -65.2891 -65.2878 -65.2875 -65.2873 -65.2871 -65.2867 -65.2850 -65.2838
   -65.2837 -65.2836 -65.2834 -65.2830 -65.2826 -65.2820 -65.2819 -65.2818
   -65.2816 -65.2803 -65.2802 -65.2794 -65.2788 -65.2787 -65.2783 -65.2769
   -65.2766 -65.2759 -65.2758 -65.2757 -65.2756 -65.2756 -65.2754 -65.2753
   -65.2734 -65.2732 -65.2728 -65.2709 -65.2707 -65.2699 -65.2698 -65.2697
   -65.2689 -65.2687 -65.2666 -65.2655 -65.2655 -65.2646 -65.2610 -65.2590
   -65.2590 -65.2553 -65.1181 -65.1174 -65.1148 -65.1082 -65.1048 -65.1037
   -65.1034 -65.1034 -65.1006 -65.0940 -65.0900 -65.0900 -65.0850 -65.0832
   -65.0819 -65.0815 -65.0769 -65.0758 -65.0753 -65.0746 -65.0705 -65.0686
   -65.0685 -65.0676 -65.0676 -65.0641 -65.0638 -65.0619 -65.0618 -65.0610
   -65.0610 -65.0598 -65.0544 -65.0498 -65.0498 -65.0458 -65.0265 -65.0253
   -65.0242 -65.0229 -65.0220 -65.0219 -65.0192 -65.0174 -65.0172 -65.0067
   -65.0053 -65.0052 -65.0025 -65.0025 -65.0015 -65.0015 -65.0014 -65.0011
   -12.4885  -9.7555  -9.7526  -6.1660  -6.1583  -4.1888  -3.5261  -2.9200
    -2.7199  -2.7198  -2.5969  -2.2539  -2.1454  -2.1453  -1.9971  -1.6796
    -1.6385  -1.2871  -1.2857  -0.9143  -0.7091  -0.7091  -0.3828  -0.3583
    -0.3569  -0.3140  -0.2775  -0.1183  -0.1182  -0.1088   0.0569   0.0574
     0.0763   0.0764   0.0926   0.1424   0.1547   0.1548   0.1718   0.2702
     0.2705   0.2740   0.2775   0.2775   0.3114   0.3518   0.3544   0.4157
     0.4159   0.4277   0.4385   0.4659   0.4660   0.4689   0.4875   0.4882
     0.5563   0.5564   0.5810   0.5831   0.6133   0.6134   0.6380   0.6474
     0.6475   0.7164   0.7164   0.7427   0.7653   0.7754   0.7756   0.8511
     0.8519   0.9024   0.9218   0.9219   0.9516   0.9517   1.0086   1.0178
     1.0180   1.0332   1.0332   1.0481   1.0860   1.1137   1.1138   1.1558
     1.1561   1.1835   1.1890   1.1893   1.1905   1.2066   1.2068   1.2667
     1.2669   1.2696   1.2697   1.2724   1.2853   1.3019   1.3029   1.3163
     1.3167   1.3443   1.3451   1.3679   1.3702   1.3707   1.3897   1.4135
     1.4545   1.4627   1.4629   1.4633   1.4640   1.4931   1.5121   1.5162
     1.5167   1.5536   1.5536   1.5548   1.5574   1.5635   1.5865   1.6080
     1.6080   1.6253   1.6254   1.6521   1.6529   1.6619   1.6620   1.6754
     1.6759   1.6897   1.6899   1.7074   1.7077   1.7221   1.7311   1.7549
     1.7690   1.7707   1.7729   1.7909   1.7935   1.7940   1.8006   1.8092
     1.8096   1.8183   1.8184   1.8325   1.8378   1.8383   1.8384   1.8456
     1.8606   1.8656   1.8891   1.9065   1.9076   1.9158   1.9182   1.9188
     1.9252   1.9263   1.9265   1.9293   1.9346   1.9403   1.9416   1.9426
     2.0019   2.0028   2.0636   2.0642   2.0731   2.0767   2.0768   2.0818
     2.1047   2.1049   2.1232   2.1255   2.1286   2.1477   2.1628   2.1638
     2.1932   2.1939   2.2073   2.2360   2.2364   2.2406   2.2411   2.2449
     2.2466   2.2471   2.2535   2.2577   2.2645   2.2652   2.2969   2.3199
     2.3289   2.3315   2.3330   2.3370   2.3472   2.3506   2.3558   2.3746
     2.3822   2.3911   2.3992   2.4263   2.4296   2.4422   2.4491   2.4520
     2.4598   2.4626   2.4934   2.5024   2.5075   2.5080   2.5345   2.5348
     2.5562   2.5628   2.5635   2.5816   2.5824   2.6053   2.6055   2.6063
     2.6100   2.6125   2.6260   2.6262   2.6307   2.6366   2.6391   2.6562
     2.6944   2.7016   2.7018   2.7039   2.7522   2.7525   2.7621   2.7633
     2.7946   2.8076   2.8079   2.8135   2.8138   2.8289   2.8316   2.8581
     2.8586   2.8587   2.8684   2.8685   2.8803   2.8819   2.8830   2.8832
     2.8848   2.8926   2.8928   2.8933   2.8959   2.9106   2.9110   2.9263
     2.9269   2.9309   2.9372   2.9372   2.9486   2.9648   2.9694   2.9753
     2.9756   2.9928   3.0247   3.0250   3.0351   3.0566   3.0569   3.2101
     3.2137   3.3242   3.3243   3.4267   3.4269   3.5275   3.7517   3.7534
     4.1299   4.1391   4.2353   4.2355   4.2483   4.5113   4.6224   4.6265
     4.6436   4.6437   4.7638   5.0899   5.1174   5.1182   5.5609   5.6021
     5.6193   5.6587   5.8538   5.8744   5.8759   6.0065   6.0114   6.0975
     6.1687   6.5420   6.6211   6.6227   6.7973   6.8512   6.9438   6.9985
     6.9991   7.2959   7.4090   7.4351   7.5573   7.7665   7.8219   7.9233
     8.4170   8.4193   8.4624   8.5230   8.7087   9.0506   9.0827   9.1188
     9.1923   9.2746   9.3294   9.4290   9.4368   9.5953   9.6305   9.6502
     9.7692   9.8120  10.0081  10.1134  10.1317  10.3129  10.3700  10.4680
    10.4900  10.5587  10.6335  10.7570  10.7896  11.0194  11.1161  11.1452
    11.2451  11.2912  11.3904  11.4259  11.4312  11.5816  11.6191  11.6563
    11.6725  11.7510  11.7951  11.8342  11.9609  12.0647  12.0851  12.1840
    12.2584  12.3217  12.3431  12.3751  12.4392  12.4510  12.5173  12.5774
    12.6723  12.6975  12.7829  12.9014  12.9340  12.9501  13.1347  13.2216
    13.2538  13.2857  13.3537  13.3749  13.4486  13.4699  13.5297  13.6054
    13.6416  13.6567

          k =-0.2500 0.1443 0.0000 ( 61417 PWs)   bands (ev):

  -107.8945-107.8909-107.8896-107.8893-107.8889-107.8875-107.8872-107.8867
  -107.8864-107.8856-107.8855-107.8849-107.8849-107.8846-107.8843-107.8837
  -107.8834-107.8833-107.8814-107.8804-107.8794-107.8793-107.8780-107.8780
  -107.8775-107.8764-107.8764-107.8740-107.8713-107.8703-107.8703-107.8690
  -107.8689-107.8684-107.8676-107.8673-107.6520-107.6493-107.6484-107.6478
  -107.6466-107.6466-107.6444-107.6424-107.6424-107.6353-107.6324-107.6313
  -107.6313-107.6298-107.6298-107.6294-107.6283-107.6283 -65.3480 -65.3389
   -65.3384 -65.3372 -65.3361 -65.3360 -65.3355 -65.3354 -65.3323 -65.3322
   -65.3315 -65.3315 -65.3296 -65.3296 -65.3250 -65.3235 -65.3235 -65.3214
   -65.3209 -65.3198 -65.3197 -65.3197 -65.3195 -65.3193 -65.3172 -65.3172
   -65.3169 -65.3167 -65.3126 -65.3125 -65.3095 -65.3094 -65.3092 -65.3081
   -65.3080 -65.3074 -65.3067 -65.3067 -65.3046 -65.3045 -65.3021 -65.3021
   -65.2988 -65.2985 -65.2984 -65.2981 -65.2972 -65.2972 -65.2965 -65.2954
   -65.2952 -65.2941 -65.2939 -65.2926 -65.2924 -65.2923 -65.2916 -65.2908
   -65.2907 -65.2888 -65.2886 -65.2885 -65.2884 -65.2882 -65.2881 -65.2856
   -65.2856 -65.2834 -65.2833 -65.2827 -65.2827 -65.2811 -65.2810 -65.2807
   -65.2802 -65.2800 -65.2800 -65.2797 -65.2795 -65.2794 -65.2794 -65.2777
   -65.2777 -65.2759 -65.2758 -65.2754 -65.2747 -65.2741 -65.2737 -65.2736
   -65.2735 -65.2729 -65.2723 -65.2701 -65.2700 -65.2684 -65.2668 -65.2667
   -65.2667 -65.2658 -65.2655 -65.2632 -65.2632 -65.2624 -65.2598 -65.2593
   -65.2562 -65.2531 -65.1159 -65.1105 -65.1105 -65.1088 -65.1086 -65.1015
   -65.0971 -65.0970 -65.0959 -65.0958 -65.0947 -65.0947 -65.0914 -65.0913
   -65.0882 -65.0828 -65.0827 -65.0771 -65.0770 -65.0742 -65.0734 -65.0729
   -65.0717 -65.0688 -65.0686 -65.0648 -65.0607 -65.0587 -65.0586 -65.0576
   -65.0576 -65.0546 -65.0545 -65.0506 -65.0467 -65.0435 -65.0271 -65.0246
   -65.0237 -65.0232 -65.0221 -65.0220 -65.0193 -65.0173 -65.0173 -65.0075
   -65.0047 -65.0037 -65.0037 -65.0023 -65.0023 -65.0019 -65.0009 -65.0009
   -12.4893  -9.7532  -9.7506  -6.1670  -6.1587  -4.2155  -3.9462  -3.3294
    -2.6249  -2.3857  -2.3431  -2.2504  -1.7944  -1.6511  -1.6326  -1.6321
    -1.6094  -1.2683  -1.1477  -1.1473  -0.9923  -0.5760  -0.5760  -0.4886
    -0.4837  -0.4485  -0.3648  -0.3163  -0.2895  -0.2887  -0.1543  -0.1212
    -0.1167  -0.0190  -0.0144  -0.0142   0.1622   0.1633   0.1920   0.2575
     0.2578   0.2912   0.3312   0.4418   0.4464   0.4761   0.4761   0.5029
     0.5121   0.5121   0.5363   0.5364   0.5833   0.5840   0.5856   0.5860
     0.5986   0.5986   0.6385   0.6385   0.6755   0.6755   0.7037   0.7037
     0.7126   0.7545   0.7547   0.7693   0.7693   0.7919   0.7920   0.8047
     0.8048   0.8390   0.8391   0.8792   0.9479   0.9479   0.9548   0.9783
     0.9783   0.9928   0.9930   1.0291   1.0292   1.0632   1.0660   1.0660
     1.1280   1.1280   1.1546   1.1552   1.1757   1.1757   1.2208   1.2209
     1.2378   1.2577   1.2647   1.2649   1.2930   1.3327   1.3328   1.3528
     1.3528   1.3592   1.3968   1.3976   1.4075   1.4327   1.4328   1.4396
     1.4726   1.4727   1.5018   1.5385   1.5503   1.5609   1.5609   1.5737
     1.5740   1.5742   1.6124   1.6132   1.6180   1.6305   1.6306   1.6460
     1.6515   1.6515   1.6679   1.6711   1.6818   1.6887   1.7007   1.7096
     1.7097   1.7198   1.7247   1.7253   1.7264   1.7440   1.7444   1.7475
     1.7475   1.7517   1.7719   1.7743   1.7852   1.7971   1.7977   1.8063
     1.8077   1.8216   1.8219   1.8579   1.8580   1.8667   1.8669   1.8682
     1.8825   1.8913   1.8913   1.8922   1.9029   1.9038   1.9082   1.9228
     1.9609   1.9660   1.9710   1.9753   1.9775   1.9777   1.9886   2.0019
     2.0061   2.0070   2.0089   2.0308   2.0309   2.0445   2.0797   2.0821
     2.1133   2.1140   2.1229   2.1231   2.1289   2.1289   2.1918   2.2074
     2.2327   2.2343   2.2419   2.2420   2.2548   2.2549   2.2690   2.2832
     2.2884   2.2949   2.2965   2.3031   2.3238   2.3257   2.3514   2.3521
     2.3658   2.3731   2.3738   2.3824   2.3859   2.4081   2.4135   2.4145
     2.4204   2.4279   2.4505   2.4646   2.4670   2.4724   2.4726   2.4898
     2.4941   2.4944   2.5106   2.5143   2.5144   2.5155   2.5234   2.5271
     2.5519   2.5621   2.5989   2.6023   2.6085   2.6365   2.6372   2.6451
     2.6484   2.6487   2.6496   2.6524   2.6732   2.6733   2.6764   2.6885
     2.6903   2.6934   2.6966   2.6976   2.7230   2.7417   2.7417   2.7465
     2.7559   2.7560   2.7776   2.7780   2.7841   2.7850   2.8281   2.8290
     2.8290   2.8400   2.8400   2.8418   2.8531   2.8539   2.8624   2.8641
     2.8641   2.8654   2.8725   2.8726   2.8735   2.8798   2.8881   2.8881
     2.9055   2.9185   2.9186   2.9193   2.9205   2.9267   2.9281   2.9282
     2.9502   2.9596   2.9643   2.9702   2.9703   2.9752   2.9879   2.9881
     3.0644   3.0774   3.1146   3.2134   3.2358   3.2359   3.3081   3.3965
     3.3965   3.6502   3.7032   3.7040   3.7069   3.7127   4.0159   4.1971
     4.3916   4.6787   4.6791   4.8810   4.9763   4.9830   5.0279   5.7623
     5.7623   5.9764   6.1381   6.1430   6.1617   6.1620   6.4159   6.6685
     6.6992   6.8443   6.8469   7.2735   7.4452   7.4474   7.4852   7.6621
     7.6968   7.7046   7.8927   7.9401   8.1565   8.1599   8.2544   8.3030
     8.3533   8.6307   8.6316   8.7571   8.8038   8.9044   9.1820   9.1828
     9.2916   9.3493   9.5522   9.5784   9.7538   9.7869   9.9075   9.9307
     9.9386   9.9642   9.9924  10.0437  10.2588  10.3323  10.3327  10.4574
    10.4923  10.4969  10.5850  10.5906  10.6720  10.7159  10.7183  10.7893
    10.8558  10.8815  10.8941  11.0986  11.1070  11.2000  11.3888  11.4184
    11.4256  11.4620  11.4715  11.5623  11.6558  11.7437  11.8942  11.9863
    12.0378  12.1267  12.1774  12.2649  12.2815  12.3750  12.4787  12.5081
    12.5138  12.5594  12.5644  12.6514  12.7848  12.7863  12.8295  12.8496
    12.9446  12.9591  13.0752  13.0949  13.1412  13.1701  13.1763  13.2682
    13.3816  13.4565

          k = 0.2500 0.1443 0.0000 ( 61417 PWs)   bands (ev):

  -107.8945-107.8909-107.8896-107.8893-107.8889-107.8875-107.8872-107.8867
  -107.8864-107.8856-107.8855-107.8849-107.8849-107.8846-107.8843-107.8837
  -107.8834-107.8833-107.8814-107.8805-107.8794-107.8793-107.8780-107.8780
  -107.8775-107.8764-107.8764-107.8740-107.8713-107.8703-107.8703-107.8690
  -107.8689-107.8684-107.8676-107.8673-107.6520-107.6493-107.6484-107.6478
  -107.6466-107.6466-107.6444-107.6424-107.6424-107.6353-107.6324-107.6313
  -107.6313-107.6298-107.6298-107.6294-107.6283-107.6283 -65.3480 -65.3389
   -65.3384 -65.3372 -65.3361 -65.3360 -65.3355 -65.3354 -65.3323 -65.3322
   -65.3315 -65.3315 -65.3296 -65.3296 -65.3250 -65.3235 -65.3235 -65.3214
   -65.3209 -65.3198 -65.3197 -65.3197 -65.3195 -65.3193 -65.3172 -65.3172
   -65.3169 -65.3167 -65.3126 -65.3125 -65.3095 -65.3094 -65.3092 -65.3081
   -65.3080 -65.3074 -65.3067 -65.3067 -65.3046 -65.3045 -65.3021 -65.3021
   -65.2988 -65.2985 -65.2984 -65.2981 -65.2972 -65.2972 -65.2965 -65.2954
   -65.2952 -65.2941 -65.2939 -65.2926 -65.2924 -65.2923 -65.2916 -65.2908
   -65.2907 -65.2888 -65.2886 -65.2885 -65.2884 -65.2882 -65.2881 -65.2856
   -65.2856 -65.2834 -65.2833 -65.2827 -65.2827 -65.2811 -65.2810 -65.2807
   -65.2802 -65.2800 -65.2800 -65.2797 -65.2795 -65.2794 -65.2794 -65.2777
   -65.2777 -65.2759 -65.2758 -65.2754 -65.2747 -65.2741 -65.2737 -65.2736
   -65.2735 -65.2729 -65.2723 -65.2701 -65.2700 -65.2684 -65.2668 -65.2667
   -65.2667 -65.2658 -65.2655 -65.2632 -65.2632 -65.2624 -65.2598 -65.2593
   -65.2562 -65.2531 -65.1159 -65.1105 -65.1105 -65.1088 -65.1086 -65.1015
   -65.0971 -65.0970 -65.0959 -65.0958 -65.0947 -65.0947 -65.0914 -65.0913
   -65.0882 -65.0828 -65.0827 -65.0771 -65.0770 -65.0742 -65.0734 -65.0729
   -65.0717 -65.0688 -65.0686 -65.0648 -65.0607 -65.0587 -65.0586 -65.0576
   -65.0576 -65.0546 -65.0545 -65.0506 -65.0467 -65.0435 -65.0271 -65.0246
   -65.0237 -65.0232 -65.0221 -65.0220 -65.0193 -65.0173 -65.0173 -65.0075
   -65.0047 -65.0037 -65.0037 -65.0023 -65.0023 -65.0019 -65.0009 -65.0009
   -12.4893  -9.7532  -9.7505  -6.1669  -6.1588  -4.2155  -3.9462  -3.3294
    -2.6249  -2.3857  -2.3431  -2.2504  -1.7944  -1.6512  -1.6326  -1.6321
    -1.6093  -1.2683  -1.1477  -1.1473  -0.9923  -0.5760  -0.5760  -0.4886
    -0.4837  -0.4485  -0.3648  -0.3163  -0.2895  -0.2887  -0.1543  -0.1212
    -0.1167  -0.0190  -0.0144  -0.0142   0.1622   0.1633   0.1920   0.2575
     0.2578   0.2911   0.3313   0.4418   0.4464   0.4761   0.4761   0.5029
     0.5121   0.5121   0.5363   0.5364   0.5833   0.5840   0.5856   0.5860
     0.5986   0.5986   0.6385   0.6385   0.6755   0.6755   0.7037   0.7037
     0.7126   0.7545   0.7547   0.7693   0.7693   0.7919   0.7920   0.8047
     0.8048   0.8390   0.8391   0.8792   0.9479   0.9479   0.9548   0.9783
     0.9783   0.9928   0.9930   1.0291   1.0292   1.0632   1.0660   1.0660
     1.1280   1.1280   1.1546   1.1552   1.1757   1.1757   1.2208   1.2209
     1.2378   1.2577   1.2647   1.2649   1.2930   1.3327   1.3328   1.3528
     1.3528   1.3592   1.3968   1.3976   1.4075   1.4327   1.4328   1.4396
     1.4726   1.4727   1.5018   1.5385   1.5503   1.5609   1.5609   1.5737
     1.5740   1.5742   1.6124   1.6132   1.6180   1.6305   1.6306   1.6460
     1.6515   1.6515   1.6679   1.6711   1.6818   1.6887   1.7007   1.7096
     1.7097   1.7198   1.7247   1.7253   1.7264   1.7440   1.7444   1.7475
     1.7475   1.7517   1.7719   1.7743   1.7852   1.7971   1.7977   1.8063
     1.8077   1.8216   1.8219   1.8579   1.8580   1.8667   1.8669   1.8682
     1.8825   1.8913   1.8913   1.8922   1.9029   1.9038   1.9082   1.9228
     1.9609   1.9660   1.9710   1.9753   1.9775   1.9777   1.9886   2.0019
     2.0061   2.0070   2.0089   2.0308   2.0309   2.0445   2.0797   2.0821
     2.1133   2.1140   2.1229   2.1231   2.1289   2.1289   2.1918   2.2074
     2.2327   2.2343   2.2419   2.2420   2.2548   2.2549   2.2689   2.2832
     2.2884   2.2949   2.2965   2.3031   2.3238   2.3257   2.3514   2.3521
     2.3658   2.3731   2.3738   2.3824   2.3860   2.4081   2.4135   2.4145
     2.4204   2.4279   2.4505   2.4646   2.4670   2.4724   2.4726   2.4898
     2.4941   2.4944   2.5106   2.5143   2.5144   2.5155   2.5234   2.5271
     2.5519   2.5621   2.5989   2.6023   2.6085   2.6365   2.6372   2.6451
     2.6484   2.6487   2.6496   2.6524   2.6732   2.6733   2.6764   2.6885
     2.6903   2.6934   2.6966   2.6976   2.7230   2.7417   2.7417   2.7465
     2.7559   2.7560   2.7776   2.7780   2.7841   2.7850   2.8281   2.8290
     2.8290   2.8400   2.8400   2.8418   2.8531   2.8539   2.8624   2.8641
     2.8641   2.8654   2.8725   2.8726   2.8735   2.8798   2.8881   2.8881
     2.9055   2.9185   2.9186   2.9193   2.9205   2.9267   2.9281   2.9282
     2.9502   2.9596   2.9643   2.9702   2.9703   2.9752   2.9879   2.9881
     3.0644   3.0774   3.1146   3.2134   3.2358   3.2359   3.3081   3.3965
     3.3965   3.6502   3.7032   3.7040   3.7069   3.7127   4.0159   4.1971
     4.3916   4.6787   4.6791   4.8810   4.9763   4.9830   5.0279   5.7623
     5.7623   5.9764   6.1381   6.1430   6.1617   6.1620   6.4159   6.6685
     6.6992   6.8443   6.8469   7.2735   7.4451   7.4474   7.4852   7.6621
     7.6968   7.7046   7.8927   7.9401   8.1565   8.1599   8.2544   8.3030
     8.3533   8.6307   8.6316   8.7571   8.8038   8.9044   9.1820   9.1828
     9.2916   9.3493   9.5522   9.5784   9.7538   9.7869   9.9075   9.9307
     9.9386   9.9642   9.9924  10.0437  10.2588  10.3323  10.3327  10.4574
    10.4924  10.4969  10.5850  10.5906  10.6720  10.7159  10.7183  10.7893
    10.8558  10.8815  10.8941  11.0986  11.1070  11.2000  11.3888  11.4184
    11.4256  11.4620  11.4715  11.5623  11.6559  11.7437  11.8942  11.9863
    12.0378  12.1267  12.1774  12.2649  12.2815  12.3749  12.4787  12.5081
    12.5138  12.5594  12.5644  12.6514  12.7848  12.7863  12.8295  12.8496
    12.9446  12.9591  13.0752  13.0949  13.1413  13.1701  13.1763  13.2682
    13.3816  13.4565

          k = 0.5000-0.2887 0.0000 ( 61408 PWs)   bands (ev):

  -107.8932-107.8927-107.8898-107.8896-107.8884-107.8876-107.8866-107.8862
  -107.8859-107.8859-107.8857-107.8856-107.8854-107.8844-107.8838-107.8837
  -107.8835-107.8822-107.8819-107.8813-107.8796-107.8796-107.8774-107.8774
  -107.8772-107.8768-107.8766-107.8730-107.8726-107.8705-107.8705-107.8685
  -107.8681-107.8681-107.8681-107.8675-107.6513-107.6503-107.6485-107.6478
  -107.6464-107.6463-107.6443-107.6425-107.6423-107.6341-107.6341-107.6315
  -107.6315-107.6290-107.6290-107.6290-107.6289-107.6289 -65.3442 -65.3439
   -65.3415 -65.3401 -65.3361 -65.3361 -65.3349 -65.3348 -65.3344 -65.3343
   -65.3333 -65.3331 -65.3330 -65.3328 -65.3291 -65.3226 -65.3221 -65.3221
   -65.3216 -65.3215 -65.3214 -65.3213 -65.3204 -65.3202 -65.3179 -65.3178
   -65.3175 -65.3174 -65.3103 -65.3102 -65.3091 -65.3090 -65.3087 -65.3085
   -65.3071 -65.3035 -65.3034 -65.3003 -65.2997 -65.2997 -65.2996 -65.2994
   -65.2993 -65.2987 -65.2967 -65.2966 -65.2961 -65.2960 -65.2958 -65.2957
   -65.2926 -65.2926 -65.2926 -65.2918 -65.2917 -65.2915 -65.2913 -65.2899
   -65.2867 -65.2865 -65.2861 -65.2861 -65.2859 -65.2854 -65.2852 -65.2852
   -65.2852 -65.2851 -65.2850 -65.2846 -65.2821 -65.2820 -65.2817 -65.2816
   -65.2811 -65.2807 -65.2790 -65.2789 -65.2781 -65.2779 -65.2779 -65.2777
   -65.2766 -65.2764 -65.2762 -65.2756 -65.2747 -65.2746 -65.2746 -65.2740
   -65.2740 -65.2737 -65.2737 -65.2707 -65.2706 -65.2705 -65.2704 -65.2690
   -65.2685 -65.2668 -65.2666 -65.2665 -65.2646 -65.2645 -65.2629 -65.2626
   -65.2558 -65.2555 -65.1200 -65.1127 -65.1127 -65.1115 -65.1112 -65.1057
   -65.0978 -65.0978 -65.0978 -65.0977 -65.0935 -65.0933 -65.0819 -65.0816
   -65.0804 -65.0802 -65.0791 -65.0791 -65.0734 -65.0729 -65.0723 -65.0697
   -65.0690 -65.0667 -65.0667 -65.0667 -65.0666 -65.0614 -65.0599 -65.0587
   -65.0583 -65.0583 -65.0556 -65.0555 -65.0465 -65.0465 -65.0265 -65.0255
   -65.0238 -65.0232 -65.0220 -65.0219 -65.0192 -65.0174 -65.0172 -65.0063
   -65.0063 -65.0039 -65.0039 -65.0016 -65.0015 -65.0015 -65.0014 -65.0014
   -12.4885  -9.7567  -9.7513  -6.1703  -6.1540  -4.1886  -3.3206  -3.3204
    -2.7213  -2.7211  -2.5971  -2.2541  -1.8135  -1.8117  -1.7879  -1.7879
    -1.6971  -1.6169  -1.2774  -1.2770  -0.7585  -0.7486  -0.5573  -0.5545
    -0.3362  -0.1754   0.0084   0.0108   0.0220   0.0286   0.0287   0.0288
     0.0289   0.1165   0.1897   0.1899   0.1980   0.2006   0.2079   0.2267
     0.2267   0.2267   0.2268   0.2523   0.2828   0.2828   0.2829   0.2830
     0.3312   0.4096   0.4476   0.4477   0.4479   0.4480   0.4881   0.5297
     0.6247   0.6248   0.6249   0.6249   0.6399   0.6621   0.6628   0.6793
     0.6793   0.6794   0.6794   0.7988   0.7989   0.7990   0.7990   0.8216
     0.8218   0.9108   0.9233   0.9233   0.9233   0.9233   0.9589   0.9589
     1.0036   1.0036   1.0752   1.0752   1.0754   1.0754   1.1356   1.1356
     1.1648   1.1651   1.1861   1.1862   1.1865   1.1866   1.2033   1.2033
     1.2399   1.2413   1.2921   1.3041   1.3044   1.3324   1.3327   1.3533
     1.3540   1.3617   1.3618   1.3620   1.3621   1.4187   1.4192   1.4237
     1.4237   1.4241   1.4241   1.4749   1.4765   1.4983   1.4984   1.4984
     1.4986   1.5082   1.5098   1.5098   1.5690   1.5716   1.5935   1.5947
     1.5953   1.6107   1.6131   1.6456   1.6463   1.6464   1.6466   1.6466
     1.6603   1.6621   1.7096   1.7098   1.7200   1.7202   1.7331   1.7331
     1.7676   1.7678   1.7678   1.7679   1.7905   1.7910   1.7915   1.7916
     1.7923   1.8213   1.8214   1.8218   1.8220   1.8531   1.8533   1.8733
     1.8826   1.8828   1.9447   1.9454   1.9513   1.9515   1.9555   1.9556
     1.9562   1.9563   1.9648   1.9656   1.9717   1.9718   1.9814   1.9984
     1.9994   2.0069   2.0072   2.0076   2.0079   2.0749   2.0787   2.0872
     2.0873   2.1533   2.1688   2.1698   2.1700   2.1703   2.1761   2.1783
     2.1785   2.1793   2.1837   2.1841   2.2081   2.2103   2.2261   2.2485
     2.2497   2.2497   2.2518   2.2692   2.2693   2.2694   2.2694   2.2728
     2.2737   2.2952   2.2954   2.3021   2.3025   2.3258   2.3616   2.3794
     2.4254   2.4254   2.4278   2.4532   2.4532   2.4539   2.4547   2.4855
     2.4863   2.4896   2.5029   2.5254   2.5261   2.5290   2.5291   2.5394
     2.5527   2.5599   2.5658   2.5659   2.5660   2.5661   2.5789   2.5998
     2.5998   2.6010   2.6024   2.6555   2.6556   2.6559   2.6562   2.6663
     2.6670   2.6926   2.6929   2.7226   2.7227   2.7258   2.7264   2.7533
     2.7534   2.7786   2.7811   2.7841   2.8023   2.8421   2.8436   2.8538
     2.8544   2.8636   2.8640   2.8778   2.8915   2.8916   2.8960   2.8962
     2.8974   2.8979   2.9132   2.9180   2.9180   2.9183   2.9184   2.9354
     2.9367   2.9369   2.9422   2.9460   2.9620   2.9650   2.9848   2.9849
     2.9853   2.9860   2.9927   2.9988   3.0216   3.0351   3.0351   3.0357
     3.0358   3.1441   3.1564   3.6753   3.6850   3.6873   3.6912   4.2032
     4.2467   4.2467   4.2469   4.2469   4.5175   4.5178   4.5181   4.5182
     4.8680   4.8709   4.8817   4.9864   5.0063   5.0748   5.0762   5.0770
     5.0779   5.3623   5.7016   5.9546   5.9798   5.9803   6.0536   6.0597
     6.0610   6.0635   6.1188   6.5254   6.5600   7.2860   7.3576   7.3706
     7.3711   7.4235   7.6008   7.9607   7.9825   8.0886   8.2286   8.3698
     8.4930   8.4944   8.4956   8.5075   8.8636   8.8867   8.9019   9.1424
     9.1440   9.1441   9.1502   9.2700   9.4604   9.5705   9.6919   9.7666
     9.7707   9.8006   9.8112   9.8479   9.8736  10.2426  10.3223  10.3292
    10.3785  10.4198  10.4436  10.4473  10.4617  10.8077  10.8774  11.0228
    11.1130  11.1936  11.2351  11.2411  11.2968  11.3493  11.3758  11.3865
    11.4627  11.5301  11.6706  12.0231  12.0918  12.1382  12.1557  12.2038
    12.2267  12.2854  12.4377  12.4892  12.7184  12.8180  12.8307  12.9294
    12.9406  12.9810  13.0097  13.0248  13.0449  13.1710  13.1772  13.1887
    13.1931  13.2496  13.2815  13.3449  13.4114  13.5817  13.6180  13.6201
    13.6727  13.7662

          k =-0.5000-0.2887 0.0000 ( 61408 PWs)   bands (ev):

  -107.8932-107.8927-107.8898-107.8896-107.8884-107.8876-107.8866-107.8862
  -107.8859-107.8859-107.8858-107.8856-107.8854-107.8844-107.8838-107.8837
  -107.8835-107.8822-107.8819-107.8813-107.8796-107.8796-107.8774-107.8774
  -107.8772-107.8768-107.8766-107.8730-107.8726-107.8705-107.8705-107.8685
  -107.8681-107.8681-107.8681-107.8675-107.6513-107.6503-107.6485-107.6478
  -107.6464-107.6463-107.6443-107.6425-107.6423-107.6341-107.6341-107.6315
  -107.6315-107.6290-107.6290-107.6290-107.6289-107.6289 -65.3442 -65.3439
   -65.3415 -65.3401 -65.3361 -65.3361 -65.3349 -65.3348 -65.3344 -65.3343
   -65.3333 -65.3331 -65.3330 -65.3328 -65.3291 -65.3226 -65.3221 -65.3221
   -65.3216 -65.3215 -65.3214 -65.3213 -65.3204 -65.3202 -65.3179 -65.3178
   -65.3175 -65.3174 -65.3103 -65.3102 -65.3091 -65.3090 -65.3087 -65.3085
   -65.3071 -65.3035 -65.3034 -65.3003 -65.2997 -65.2997 -65.2996 -65.2994
   -65.2993 -65.2987 -65.2967 -65.2966 -65.2961 -65.2960 -65.2958 -65.2957
   -65.2926 -65.2926 -65.2926 -65.2918 -65.2917 -65.2915 -65.2913 -65.2899
   -65.2867 -65.2865 -65.2861 -65.2861 -65.2859 -65.2854 -65.2852 -65.2852
   -65.2852 -65.2851 -65.2850 -65.2846 -65.2821 -65.2820 -65.2817 -65.2816
   -65.2811 -65.2807 -65.2790 -65.2789 -65.2781 -65.2779 -65.2779 -65.2777
   -65.2766 -65.2764 -65.2762 -65.2756 -65.2747 -65.2746 -65.2746 -65.2740
   -65.2740 -65.2737 -65.2737 -65.2707 -65.2706 -65.2705 -65.2704 -65.2690
   -65.2685 -65.2668 -65.2666 -65.2665 -65.2646 -65.2645 -65.2629 -65.2626
   -65.2558 -65.2555 -65.1200 -65.1127 -65.1127 -65.1115 -65.1112 -65.1057
   -65.0978 -65.0978 -65.0978 -65.0977 -65.0935 -65.0933 -65.0819 -65.0816
   -65.0804 -65.0802 -65.0791 -65.0791 -65.0734 -65.0729 -65.0723 -65.0697
   -65.0690 -65.0667 -65.0667 -65.0667 -65.0666 -65.0614 -65.0599 -65.0587
   -65.0583 -65.0583 -65.0556 -65.0555 -65.0465 -65.0465 -65.0265 -65.0255
   -65.0238 -65.0232 -65.0220 -65.0219 -65.0192 -65.0174 -65.0172 -65.0063
   -65.0063 -65.0039 -65.0039 -65.0015 -65.0015 -65.0015 -65.0014 -65.0014
   -12.4885  -9.7568  -9.7513  -6.1703  -6.1541  -4.1886  -3.3206  -3.3204
    -2.7213  -2.7211  -2.5971  -2.2541  -1.8135  -1.8117  -1.7879  -1.7879
    -1.6971  -1.6168  -1.2774  -1.2770  -0.7585  -0.7486  -0.5573  -0.5545
    -0.3362  -0.1754   0.0084   0.0108   0.0220   0.0286   0.0287   0.0288
     0.0289   0.1165   0.1897   0.1899   0.1980   0.2006   0.2079   0.2267
     0.2267   0.2267   0.2268   0.2522   0.2828   0.2828   0.2829   0.2830
     0.3313   0.4096   0.4476   0.4477   0.4479   0.4480   0.4881   0.5297
     0.6247   0.6248   0.6249   0.6249   0.6399   0.6621   0.6628   0.6793
     0.6793   0.6794   0.6794   0.7988   0.7989   0.7990   0.7990   0.8216
     0.8218   0.9108   0.9233   0.9233   0.9233   0.9233   0.9589   0.9589
     1.0036   1.0036   1.0752   1.0752   1.0754   1.0754   1.1356   1.1356
     1.1648   1.1651   1.1861   1.1862   1.1865   1.1866   1.2033   1.2033
     1.2399   1.2413   1.2921   1.3041   1.3044   1.3324   1.3327   1.3533
     1.3540   1.3617   1.3618   1.3620   1.3621   1.4187   1.4192   1.4237
     1.4237   1.4241   1.4241   1.4749   1.4765   1.4983   1.4984   1.4984
     1.4986   1.5082   1.5098   1.5098   1.5690   1.5716   1.5935   1.5947
     1.5953   1.6107   1.6131   1.6456   1.6463   1.6464   1.6466   1.6466
     1.6603   1.6621   1.7096   1.7098   1.7200   1.7202   1.7331   1.7331
     1.7676   1.7678   1.7678   1.7679   1.7905   1.7910   1.7915   1.7916
     1.7923   1.8213   1.8214   1.8218   1.8220   1.8531   1.8533   1.8733
     1.8826   1.8828   1.9447   1.9454   1.9513   1.9515   1.9555   1.9556
     1.9562   1.9563   1.9648   1.9656   1.9717   1.9718   1.9814   1.9984
     1.9994   2.0069   2.0072   2.0076   2.0079   2.0749   2.0787   2.0872
     2.0873   2.1533   2.1688   2.1698   2.1700   2.1703   2.1761   2.1783
     2.1785   2.1793   2.1837   2.1841   2.2081   2.2103   2.2261   2.2485
     2.2497   2.2497   2.2518   2.2692   2.2693   2.2694   2.2694   2.2728
     2.2737   2.2952   2.2954   2.3021   2.3025   2.3258   2.3616   2.3794
     2.4254   2.4254   2.4278   2.4532   2.4532   2.4539   2.4547   2.4855
     2.4863   2.4896   2.5029   2.5254   2.5261   2.5290   2.5291   2.5394
     2.5527   2.5599   2.5658   2.5659   2.5660   2.5661   2.5789   2.5998
     2.5998   2.6010   2.6024   2.6555   2.6556   2.6559   2.6562   2.6663
     2.6670   2.6926   2.6929   2.7226   2.7227   2.7258   2.7264   2.7533
     2.7534   2.7786   2.7811   2.7841   2.8023   2.8421   2.8436   2.8538
     2.8544   2.8636   2.8640   2.8778   2.8915   2.8916   2.8960   2.8962
     2.8974   2.8979   2.9132   2.9180   2.9180   2.9183   2.9184   2.9354
     2.9367   2.9369   2.9422   2.9460   2.9620   2.9650   2.9848   2.9849
     2.9853   2.9860   2.9927   2.9988   3.0216   3.0351   3.0351   3.0357
     3.0358   3.1441   3.1564   3.6753   3.6850   3.6873   3.6912   4.2032
     4.2467   4.2467   4.2469   4.2469   4.5175   4.5178   4.5181   4.5182
     4.8680   4.8709   4.8817   4.9864   5.0063   5.0748   5.0762   5.0770
     5.0779   5.3623   5.7016   5.9546   5.9798   5.9803   6.0536   6.0597
     6.0610   6.0635   6.1188   6.5254   6.5600   7.2860   7.3576   7.3706
     7.3711   7.4235   7.6007   7.9606   7.9825   8.0886   8.2286   8.3698
     8.4930   8.4944   8.4956   8.5075   8.8636   8.8867   8.9019   9.1424
     9.1440   9.1441   9.1502   9.2700   9.4604   9.5705   9.6918   9.7666
     9.7707   9.8006   9.8112   9.8479   9.8736  10.2426  10.3223  10.3292
    10.3785  10.4198  10.4436  10.4473  10.4617  10.8077  10.8774  11.0228
    11.1130  11.1937  11.2351  11.2411  11.2968  11.3493  11.3758  11.3865
    11.4627  11.5301  11.6706  12.0231  12.0918  12.1382  12.1557  12.2038
    12.2267  12.2854  12.4377  12.4892  12.7183  12.8181  12.8307  12.9294
    12.9406  12.9810  13.0097  13.0248  13.0449  13.1710  13.1772  13.1887
    13.1931  13.2496  13.2815  13.3449  13.4114  13.5817  13.6180  13.6202
    13.6727  13.7662

          k =-0.2500-0.7217 0.0000 ( 61343 PWs)   bands (ev):

  -107.8935-107.8918-107.8912-107.8887-107.8876-107.8875-107.8872-107.8866
  -107.8863-107.8858-107.8857-107.8853-107.8850-107.8843-107.8841-107.8837
  -107.8835-107.8825-107.8814-107.8811-107.8809-107.8784-107.8780-107.8774
  -107.8772-107.8768-107.8765-107.8732-107.8720-107.8716-107.8693-107.8690
  -107.8684-107.8681-107.8679-107.8674-107.6514-107.6501-107.6489-107.6474
  -107.6465-107.6464-107.6443-107.6425-107.6423-107.6345-107.6330-107.6330
  -107.6301-107.6300-107.6290-107.6290-107.6289-107.6286 -65.3453 -65.3408
   -65.3404 -65.3395 -65.3393 -65.3382 -65.3380 -65.3366 -65.3349 -65.3333
   -65.3331 -65.3320 -65.3292 -65.3273 -65.3269 -65.3269 -65.3267 -65.3242
   -65.3210 -65.3206 -65.3205 -65.3203 -65.3201 -65.3186 -65.3184 -65.3175
   -65.3166 -65.3165 -65.3138 -65.3134 -65.3084 -65.3082 -65.3077 -65.3070
   -65.3045 -65.3043 -65.3035 -65.3033 -65.3031 -65.3001 -65.2996 -65.2994
   -65.2984 -65.2978 -65.2974 -65.2973 -65.2963 -65.2935 -65.2932 -65.2931
   -65.2930 -65.2929 -65.2927 -65.2914 -65.2912 -65.2910 -65.2907 -65.2892
   -65.2891 -65.2878 -65.2875 -65.2873 -65.2871 -65.2867 -65.2850 -65.2838
   -65.2837 -65.2836 -65.2834 -65.2830 -65.2826 -65.2820 -65.2819 -65.2818
   -65.2816 -65.2803 -65.2802 -65.2794 -65.2788 -65.2787 -65.2783 -65.2769
   -65.2766 -65.2759 -65.2758 -65.2757 -65.2756 -65.2756 -65.2754 -65.2753
   -65.2734 -65.2732 -65.2728 -65.2709 -65.2707 -65.2699 -65.2698 -65.2697
   -65.2689 -65.2687 -65.2666 -65.2655 -65.2655 -65.2646 -65.2610 -65.2590
   -65.2590 -65.2553 -65.1181 -65.1174 -65.1148 -65.1082 -65.1048 -65.1037
   -65.1034 -65.1034 -65.1006 -65.0940 -65.0900 -65.0900 -65.0850 -65.0832
   -65.0819 -65.0815 -65.0769 -65.0758 -65.0753 -65.0746 -65.0705 -65.0686
   -65.0685 -65.0676 -65.0676 -65.0641 -65.0638 -65.0619 -65.0618 -65.0610
   -65.0610 -65.0598 -65.0544 -65.0498 -65.0498 -65.0458 -65.0265 -65.0253
   -65.0242 -65.0229 -65.0220 -65.0219 -65.0192 -65.0174 -65.0172 -65.0067
   -65.0053 -65.0052 -65.0025 -65.0025 -65.0015 -65.0015 -65.0014 -65.0011
   -12.4885  -9.7555  -9.7526  -6.1660  -6.1583  -4.1888  -3.5261  -2.9200
    -2.7199  -2.7198  -2.5969  -2.2539  -2.1454  -2.1453  -1.9971  -1.6795
    -1.6386  -1.2871  -1.2857  -0.9143  -0.7091  -0.7091  -0.3828  -0.3583
    -0.3569  -0.3140  -0.2775  -0.1183  -0.1182  -0.1088   0.0569   0.0574
     0.0763   0.0764   0.0926   0.1424   0.1547   0.1548   0.1718   0.2703
     0.2705   0.2740   0.2775   0.2775   0.3113   0.3518   0.3544   0.4157
     0.4159   0.4277   0.4385   0.4659   0.4660   0.4689   0.4875   0.4882
     0.5563   0.5564   0.5810   0.5831   0.6133   0.6134   0.6380   0.6474
     0.6475   0.7164   0.7164   0.7427   0.7653   0.7754   0.7756   0.8511
     0.8519   0.9024   0.9218   0.9219   0.9516   0.9517   1.0086   1.0178
     1.0180   1.0332   1.0332   1.0481   1.0860   1.1137   1.1138   1.1558
     1.1561   1.1835   1.1890   1.1893   1.1905   1.2066   1.2068   1.2667
     1.2669   1.2696   1.2697   1.2724   1.2853   1.3019   1.3029   1.3163
     1.3167   1.3443   1.3451   1.3679   1.3702   1.3707   1.3897   1.4135
     1.4545   1.4627   1.4629   1.4633   1.4640   1.4931   1.5121   1.5162
     1.5167   1.5536   1.5536   1.5548   1.5574   1.5635   1.5865   1.6080
     1.6080   1.6253   1.6254   1.6521   1.6529   1.6619   1.6620   1.6754
     1.6759   1.6897   1.6899   1.7074   1.7077   1.7221   1.7311   1.7549
     1.7690   1.7707   1.7729   1.7909   1.7935   1.7940   1.8006   1.8092
     1.8096   1.8183   1.8184   1.8325   1.8378   1.8383   1.8384   1.8456
     1.8606   1.8656   1.8891   1.9065   1.9076   1.9158   1.9182   1.9188
     1.9252   1.9263   1.9265   1.9293   1.9346   1.9403   1.9416   1.9426
     2.0019   2.0028   2.0636   2.0642   2.0731   2.0767   2.0768   2.0818
     2.1047   2.1049   2.1232   2.1255   2.1286   2.1477   2.1628   2.1638
     2.1932   2.1939   2.2073   2.2360   2.2364   2.2406   2.2411   2.2449
     2.2466   2.2471   2.2535   2.2577   2.2645   2.2652   2.2969   2.3199
     2.3289   2.3315   2.3330   2.3370   2.3472   2.3506   2.3558   2.3746
     2.3822   2.3911   2.3992   2.4263   2.4296   2.4422   2.4491   2.4520
     2.4598   2.4626   2.4934   2.5024   2.5075   2.5080   2.5345   2.5348
     2.5562   2.5628   2.5635   2.5816   2.5824   2.6053   2.6055   2.6063
     2.6100   2.6125   2.6260   2.6262   2.6307   2.6366   2.6391   2.6562
     2.6944   2.7016   2.7018   2.7039   2.7522   2.7525   2.7621   2.7633
     2.7946   2.8076   2.8079   2.8135   2.8138   2.8289   2.8316   2.8581
     2.8586   2.8587   2.8684   2.8685   2.8803   2.8819   2.8830   2.8832
     2.8848   2.8926   2.8928   2.8933   2.8959   2.9106   2.9110   2.9263
     2.9269   2.9309   2.9372   2.9372   2.9486   2.9648   2.9694   2.9753
     2.9756   2.9928   3.0247   3.0250   3.0351   3.0566   3.0569   3.2101
     3.2137   3.3242   3.3243   3.4267   3.4269   3.5275   3.7517   3.7534
     4.1299   4.1391   4.2353   4.2355   4.2483   4.5113   4.6224   4.6265
     4.6436   4.6437   4.7638   5.0899   5.1174   5.1182   5.5609   5.6021
     5.6193   5.6587   5.8538   5.8744   5.8759   6.0065   6.0114   6.0975
     6.1687   6.5420   6.6211   6.6227   6.7973   6.8512   6.9438   6.9985
     6.9991   7.2959   7.4090   7.4351   7.5573   7.7665   7.8219   7.9233
     8.4170   8.4193   8.4623   8.5230   8.7087   9.0506   9.0827   9.1188
     9.1923   9.2746   9.3294   9.4290   9.4368   9.5953   9.6305   9.6502
     9.7692   9.8120  10.0081  10.1134  10.1317  10.3129  10.3700  10.4680
    10.4900  10.5587  10.6335  10.7570  10.7896  11.0194  11.1161  11.1452
    11.2451  11.2912  11.3904  11.4259  11.4312  11.5816  11.6191  11.6563
    11.6725  11.7510  11.7951  11.8342  11.9609  12.0647  12.0851  12.1840
    12.2585  12.3217  12.3431  12.3751  12.4392  12.4510  12.5173  12.5774
    12.6723  12.6975  12.7829  12.9014  12.9340  12.9501  13.1347  13.2216
    13.2538  13.2857  13.3537  13.3749  13.4486  13.4699  13.5298  13.6054
    13.6416  13.6566

          k =-0.5000-0.5774 0.0000 ( 61343 PWs)   bands (ev):

  -107.8935-107.8918-107.8912-107.8888-107.8876-107.8875-107.8872-107.8866
  -107.8863-107.8858-107.8857-107.8853-107.8850-107.8843-107.8841-107.8837
  -107.8835-107.8825-107.8814-107.8811-107.8809-107.8784-107.8780-107.8774
  -107.8772-107.8768-107.8765-107.8732-107.8720-107.8716-107.8693-107.8690
  -107.8684-107.8681-107.8679-107.8674-107.6514-107.6501-107.6490-107.6474
  -107.6465-107.6463-107.6443-107.6425-107.6423-107.6345-107.6330-107.6330
  -107.6301-107.6300-107.6290-107.6290-107.6289-107.6286 -65.3453 -65.3408
   -65.3404 -65.3395 -65.3393 -65.3382 -65.3380 -65.3366 -65.3349 -65.3333
   -65.3331 -65.3320 -65.3292 -65.3273 -65.3269 -65.3269 -65.3267 -65.3242
   -65.3210 -65.3206 -65.3205 -65.3203 -65.3201 -65.3186 -65.3184 -65.3175
   -65.3166 -65.3165 -65.3138 -65.3134 -65.3084 -65.3082 -65.3077 -65.3070
   -65.3045 -65.3043 -65.3035 -65.3033 -65.3031 -65.3001 -65.2996 -65.2994
   -65.2984 -65.2978 -65.2974 -65.2973 -65.2963 -65.2935 -65.2932 -65.2931
   -65.2930 -65.2929 -65.2927 -65.2914 -65.2912 -65.2910 -65.2907 -65.2892
   -65.2891 -65.2878 -65.2875 -65.2873 -65.2871 -65.2867 -65.2850 -65.2838
   -65.2837 -65.2836 -65.2834 -65.2830 -65.2826 -65.2820 -65.2819 -65.2818
   -65.2816 -65.2803 -65.2802 -65.2794 -65.2788 -65.2787 -65.2783 -65.2769
   -65.2766 -65.2759 -65.2758 -65.2757 -65.2756 -65.2756 -65.2754 -65.2753
   -65.2734 -65.2732 -65.2728 -65.2709 -65.2707 -65.2699 -65.2697 -65.2697
   -65.2689 -65.2687 -65.2666 -65.2655 -65.2655 -65.2646 -65.2610 -65.2590
   -65.2590 -65.2553 -65.1181 -65.1174 -65.1148 -65.1082 -65.1048 -65.1037
   -65.1034 -65.1034 -65.1006 -65.0940 -65.0900 -65.0900 -65.0850 -65.0832
   -65.0819 -65.0815 -65.0769 -65.0758 -65.0753 -65.0746 -65.0705 -65.0686
   -65.0685 -65.0676 -65.0676 -65.0641 -65.0638 -65.0619 -65.0618 -65.0610
   -65.0610 -65.0598 -65.0544 -65.0498 -65.0498 -65.0458 -65.0265 -65.0253
   -65.0242 -65.0229 -65.0220 -65.0219 -65.0192 -65.0174 -65.0172 -65.0067
   -65.0053 -65.0052 -65.0025 -65.0025 -65.0015 -65.0015 -65.0014 -65.0011
   -12.4885  -9.7553  -9.7528  -6.1664  -6.1579  -4.1888  -3.5261  -2.9200
    -2.7199  -2.7198  -2.5969  -2.2539  -2.1454  -2.1453  -1.9971  -1.6795
    -1.6386  -1.2871  -1.2857  -0.9143  -0.7091  -0.7091  -0.3828  -0.3583
    -0.3569  -0.3140  -0.2775  -0.1183  -0.1182  -0.1088   0.0569   0.0574
     0.0763   0.0764   0.0926   0.1424   0.1547   0.1548   0.1718   0.2704
     0.2705   0.2740   0.2775   0.2775   0.3112   0.3518   0.3544   0.4157
     0.4159   0.4277   0.4385   0.4659   0.4660   0.4689   0.4875   0.4882
     0.5563   0.5564   0.5810   0.5831   0.6133   0.6134   0.6380   0.6474
     0.6475   0.7164   0.7164   0.7427   0.7653   0.7754   0.7756   0.8511
     0.8519   0.9024   0.9218   0.9219   0.9516   0.9517   1.0086   1.0178
     1.0180   1.0332   1.0332   1.0481   1.0860   1.1137   1.1138   1.1558
     1.1561   1.1835   1.1890   1.1893   1.1905   1.2066   1.2068   1.2667
     1.2669   1.2696   1.2697   1.2724   1.2853   1.3019   1.3029   1.3163
     1.3167   1.3442   1.3451   1.3679   1.3702   1.3707   1.3897   1.4135
     1.4545   1.4627   1.4629   1.4633   1.4640   1.4931   1.5121   1.5162
     1.5167   1.5536   1.5536   1.5548   1.5574   1.5635   1.5865   1.6080
     1.6080   1.6253   1.6254   1.6521   1.6529   1.6619   1.6620   1.6754
     1.6759   1.6897   1.6899   1.7074   1.7077   1.7221   1.7311   1.7549
     1.7690   1.7707   1.7729   1.7909   1.7936   1.7940   1.8006   1.8092
     1.8096   1.8183   1.8184   1.8325   1.8378   1.8383   1.8384   1.8456
     1.8606   1.8656   1.8891   1.9065   1.9076   1.9158   1.9182   1.9188
     1.9252   1.9263   1.9265   1.9293   1.9346   1.9403   1.9416   1.9426
     2.0019   2.0027   2.0636   2.0642   2.0731   2.0767   2.0768   2.0818
     2.1047   2.1049   2.1232   2.1255   2.1286   2.1477   2.1628   2.1638
     2.1932   2.1939   2.2073   2.2360   2.2364   2.2406   2.2411   2.2449
     2.2466   2.2471   2.2535   2.2577   2.2645   2.2652   2.2969   2.3199
     2.3289   2.3315   2.3330   2.3370   2.3472   2.3506   2.3558   2.3746
     2.3822   2.3911   2.3992   2.4264   2.4296   2.4422   2.4491   2.4520
     2.4598   2.4626   2.4934   2.5024   2.5075   2.5080   2.5345   2.5348
     2.5562   2.5628   2.5635   2.5816   2.5824   2.6053   2.6055   2.6063
     2.6100   2.6125   2.6260   2.6262   2.6307   2.6366   2.6391   2.6562
     2.6944   2.7016   2.7018   2.7039   2.7522   2.7525   2.7621   2.7633
     2.7946   2.8076   2.8079   2.8135   2.8138   2.8289   2.8316   2.8581
     2.8586   2.8587   2.8684   2.8685   2.8803   2.8819   2.8830   2.8832
     2.8848   2.8926   2.8928   2.8933   2.8959   2.9106   2.9110   2.9263
     2.9269   2.9309   2.9372   2.9372   2.9486   2.9648   2.9694   2.9753
     2.9756   2.9928   3.0247   3.0250   3.0351   3.0566   3.0569   3.2101
     3.2137   3.3242   3.3243   3.4267   3.4269   3.5275   3.7517   3.7534
     4.1299   4.1391   4.2353   4.2355   4.2483   4.5113   4.6224   4.6265
     4.6436   4.6437   4.7638   5.0899   5.1174   5.1182   5.5609   5.6021
     5.6193   5.6587   5.8538   5.8744   5.8759   6.0065   6.0114   6.0975
     6.1687   6.5420   6.6211   6.6227   6.7973   6.8512   6.9438   6.9985
     6.9991   7.2960   7.4091   7.4350   7.5573   7.7665   7.8219   7.9233
     8.4170   8.4194   8.4623   8.5230   8.7087   9.0506   9.0827   9.1188
     9.1923   9.2746   9.3294   9.4290   9.4369   9.5953   9.6305   9.6502
     9.7692   9.8120  10.0081  10.1134  10.1317  10.3128  10.3701  10.4680
    10.4900  10.5587  10.6335  10.7570  10.7896  11.0194  11.1161  11.1452
    11.2451  11.2912  11.3904  11.4259  11.4312  11.5816  11.6192  11.6563
    11.6725  11.7511  11.7951  11.8342  11.9609  12.0647  12.0852  12.1840
    12.2586  12.3217  12.3431  12.3751  12.4392  12.4510  12.5173  12.5774
    12.6723  12.6975  12.7829  12.9014  12.9340  12.9500  13.1347  13.2216
    13.2538  13.2855  13.3537  13.3749  13.4486  13.4699  13.5300  13.6054
    13.6416  13.6567

     the Fermi energy is     4.5534 ev

!    total energy              =  -21903.76776372 Ry
     Harris-Foulkes estimate   =  -21903.76776371 Ry
     estimated scf accuracy    <          3.9E-09 Ry

     The total energy is the sum of the following terms:

     one-electron contribution = -205939.37249234 Ry
     hartree contribution      =  103170.40660318 Ry
     xc contribution           =   -2143.16136199 Ry
     ewald contribution        =   83008.41204056 Ry
     smearing contrib. (-TS)   =      -0.05255312 Ry

     convergence has been achieved in  36 iterations
 
     init_run     :    127.77s CPU    132.62s WALL (       1 calls)
     electrons    :  21605.83s CPU  22081.28s WALL (       1 calls)

     Called by init_run:
     wfcinit      :    115.27s CPU    118.64s WALL (       1 calls)
     potinit      :      8.58s CPU      9.12s WALL (       1 calls)
     hinit0       :      1.70s CPU      1.73s WALL (       1 calls)

     Called by electrons:
     c_bands      :  19872.31s CPU  20257.64s WALL (      36 calls)
     sum_band     :   1425.38s CPU   1476.92s WALL (      36 calls)
     v_of_rho     :    256.84s CPU    269.65s WALL (      37 calls)
     newd         :     48.07s CPU     74.76s WALL (      37 calls)
     mix_rho      :      7.65s CPU      7.89s WALL (      36 calls)

     Called by c_bands:
     init_us_2    :     39.81s CPU     41.01s WALL (     730 calls)
     cegterg      :  19735.76s CPU  20114.41s WALL (     360 calls)

     Called by sum_band:
     sum_band:bec :      3.49s CPU      3.51s WALL (     360 calls)
     addusdens    :     57.38s CPU     84.65s WALL (      36 calls)

     Called by *egterg:
     h_psi        :   6677.08s CPU   6816.22s WALL (    1890 calls)
     s_psi        :    621.55s CPU    622.87s WALL (    1890 calls)
     g_psi        :     12.93s CPU     12.99s WALL (    1520 calls)
     cdiaghg      :   9437.44s CPU   9544.83s WALL (    1880 calls)

     Called by h_psi:
     h_psi:pot    :   6661.97s CPU   6778.27s WALL (    1890 calls)
     h_psi:calbec :    669.20s CPU    674.92s WALL (    1890 calls)
     vloc_psi     :   5370.08s CPU   5478.83s WALL (    1890 calls)
     add_vuspsi   :    622.65s CPU    624.50s WALL (    1890 calls)

     General routines
     calbec       :    907.09s CPU    913.92s WALL (    2250 calls)
     fft          :    208.32s CPU    211.36s WALL (    2330 calls)
     ffts         :      0.88s CPU      0.90s WALL (      73 calls)
     fftw         :   5810.62s CPU   5934.44s WALL ( 1448376 calls)
     interpolate  :      3.76s CPU      3.81s WALL (      37 calls)
 
     Parallel routines
     fft_scatt_xy :    426.24s CPU    429.67s WALL ( 1450779 calls)
     fft_scatt_yz :   4249.92s CPU   4367.54s WALL ( 1450779 calls)
 
     PWSCF        :     6h 2m CPU        2h 6m WALL

      10h
 
   This run was terminated on:   9:22:44  15Nov2019            

=------------------------------------------------------------------------------=
   JOB DONE.
=------------------------------------------------------------------------------=
