
     Program PWSCF v.6.3MaX starts on 25Nov2019 at 17:23:44 

     This program is part of the open-source Quantum ESPRESSO suite
     for quantum simulation of materials; please cite
         "P. Giannozzi et al., J. Phys.:Condens. Matter 21 395502 (2009);
         "P. Giannozzi et al., J. Phys.:Condens. Matter 29 465901 (2017);
          URL http://www.quantum-espresso.org", 
     in publications or presentations arising from this work. More details at
     http://www.quantum-espresso.org/quote

     Parallel version (MPI), running on    16 processors

     MPI processes distributed on     2 nodes
     R & G space division:  proc/nbgrp/npool/nimage =      16
     Waiting for input...
     Reading input from standard input

     Current dimensions of program PWSCF are:
     Max number of different atomic species (ntypx) = 10
     Max number of k-points (npk) =  40000
     Max angular momentum in pseudopotentials (lmaxx) =  3
     Message from routine iosys:
     minimal I/O required, wf_collect reset to FALSE

     IMPORTANT: XC functional enforced from input :
     Exchange-correlation      = VDW-DF ( 1  4  4  0 1 0)
     Any further DFT definition will be discarded
     Please, verify this is what you really want


     Subspace diagonalization in iterative solution of the eigenvalue problem:
     one sub-group per band group will be used
     scalapack distributed-memory algorithm (size of sub-group:  2*  2 procs)

 
     Parallelization info
     --------------------
     sticks:   dense  smooth     PW     G-vecs:    dense   smooth      PW
     Min         565     189     51               159513    30701    4383
     Max         566     190     52               159526    30710    4400
     Sum        9055    3037    823              2552337   491295   70261
 


     bravais-lattice index     =            0
     lattice parameter (alat)  =      14.8058  a.u.
     unit-cell volume          =   10282.4791 (a.u.)^3
     number of atoms/cell      =           66
     number of atomic types    =            3
     number of electrons       =      1056.00
     number of Kohn-Sham states=          634
     kinetic-energy cutoff     =      50.0000  Ry
     charge density cutoff     =     600.0000  Ry
     convergence threshold     =      1.0E-08
     mixing beta               =       0.3000
     number of iterations used =            8  plain     mixing
     Exchange-correlation      = VDW-DF ( 1  4  4  0 1 0)

     celldm(1)=  14.805786  celldm(2)=   0.000000  celldm(3)=   0.000000
     celldm(4)=   0.000000  celldm(5)=   0.000000  celldm(6)=   0.000000

     crystal axes: (cart. coord. in units of alat)
               a(1) = (   1.000000   0.000000   0.000000 )  
               a(2) = (   0.500000   0.866025   0.000000 )  
               a(3) = (   0.000000   0.000000   3.658245 )  

     reciprocal axes: (cart. coord. in units 2 pi/alat)
               b(1) = (  1.000000 -0.577350  0.000000 )  
               b(2) = (  0.000000  1.154701  0.000000 )  
               b(3) = (  0.000000  0.000000  0.273355 )  


     PseudoPot. # 1 for Cu read from file:
     /deac/thonhauserGrp/chakrad/calculations/atomandmolecule-qe6.2.1-i2012-C6modif/all_pbe_UPF_v1.5/cu_pbe_v1.2.uspp.F.UPF
     MD5 check sum: 6e991ff952a84172a2a52a1c1e996048
     Pseudo is Ultrasoft + core correction, Zval = 19.0
     Generated by new atomic code, or converted to UPF format
     Using radial grid of  867 points,  6 beta functions with: 
                l(1) =   0
                l(2) =   0
                l(3) =   1
                l(4) =   1
                l(5) =   2
                l(6) =   2
     Q(r) pseudized with  8 coefficients,  rinner =    1.150   1.150   1.150
                                                       1.150   1.150

     PseudoPot. # 2 for C  read from file:
     /deac/thonhauserGrp/chakrad/calculations/atomandmolecule-qe6.2.1-i2012-C6modif/all_pbe_UPF_v1.5/c_pbe_v1.2.uspp.F.UPF
     MD5 check sum: d1aef80898a10debaa0f26306b886e00
     Pseudo is Ultrasoft + core correction, Zval =  4.0
     Generated by new atomic code, or converted to UPF format
     Using radial grid of  721 points,  4 beta functions with: 
                l(1) =   0
                l(2) =   0
                l(3) =   1
                l(4) =   1
     Q(r) pseudized with  8 coefficients,  rinner =    1.100   1.100   1.100


     PseudoPot. # 3 for H  read from file:
     /deac/thonhauserGrp/chakrad/calculations/atomandmolecule-qe6.2.1-i2012-C6modif/all_pbe_UPF_v1.5/h_pbe_v1.4.uspp.F.UPF
     MD5 check sum: 761ae9a214b05c3daf00ab9f6b793d6f
     Pseudo is Ultrasoft, Zval =  1.0
     Generated by new atomic code, or converted to UPF format
     Using radial grid of  615 points,  2 beta functions with: 
                l(1) =   0
                l(2) =   0
     Q(r) pseudized with  8 coefficients,  rinner =    0.700

     vdW kernel table read from file vdW_kernel_table
     MD5 check sum: cc9485f6209b1096fbef62427c856dab

     atomic species   valence    mass     pseudopotential
        Cu            19.00     1.00000     Cu( 1.00)
        C              4.00     1.00000     C ( 1.00)
        H              1.00     1.00000     H ( 1.00)

     No symmetry found



   Cartesian axes

     site n.     atom                  positions (alat units)
         1           Cu  tau(   1) = (   0.1666667   0.0962250   0.2552686  )
         2           Cu  tau(   2) = (   0.5000000   0.0962250   0.2552686  )
         3           Cu  tau(   3) = (   0.8333333   0.0962250   0.2552686  )
         4           Cu  tau(   4) = (   0.3333333   0.3849002   0.2552686  )
         5           Cu  tau(   5) = (   0.6666667   0.3849002   0.2552686  )
         6           Cu  tau(   6) = (   1.0000000   0.3849002   0.2552686  )
         7           Cu  tau(   7) = (   0.5000000   0.6735753   0.2552686  )
         8           Cu  tau(   8) = (   0.8333333   0.6735753   0.2552686  )
         9           Cu  tau(   9) = (   1.1666667   0.6735753   0.2552686  )
        10           Cu  tau(  10) = (   0.0000000   0.1924501   0.5274341  )
        11           Cu  tau(  11) = (   0.3333333   0.1924501   0.5274341  )
        12           Cu  tau(  12) = (   0.6666667   0.1924501   0.5274341  )
        13           Cu  tau(  13) = (   0.1666667   0.4811252   0.5274341  )
        14           Cu  tau(  14) = (   0.5000000   0.4811252   0.5274341  )
        15           Cu  tau(  15) = (   0.8333333   0.4811252   0.5274341  )
        16           Cu  tau(  16) = (   0.3333333   0.7698004   0.5274341  )
        17           Cu  tau(  17) = (   0.6666667   0.7698004   0.5274341  )
        18           Cu  tau(  18) = (   1.0000000   0.7698004   0.5274341  )
        19           Cu  tau(  19) = (   0.0000000   0.0000000   0.7995997  )
        20           Cu  tau(  20) = (   0.3333333   0.0000000   0.7995997  )
        21           Cu  tau(  21) = (   0.6666667   0.0000000   0.7995997  )
        22           Cu  tau(  22) = (   0.1666667   0.2886751   0.7995997  )
        23           Cu  tau(  23) = (   0.5000000   0.2886751   0.7995997  )
        24           Cu  tau(  24) = (   0.8333333   0.2886751   0.7995997  )
        25           Cu  tau(  25) = (   0.3333333   0.5773503   0.7995997  )
        26           Cu  tau(  26) = (   0.6666667   0.5773503   0.7995997  )
        27           Cu  tau(  27) = (   1.0000000   0.5773503   0.7995997  )
        28           Cu  tau(  28) = (   0.1666659   0.0962246   1.0691130  )
        29           Cu  tau(  29) = (   0.5000000   0.0962241   1.0691104  )
        30           Cu  tau(  30) = (   0.8333341   0.0962246   1.0691130  )
        31           Cu  tau(  31) = (   0.3333325   0.3849006   1.0691104  )
        32           Cu  tau(  32) = (   0.6666675   0.3849006   1.0691104  )
        33           Cu  tau(  33) = (   1.0000000   0.3849003   1.0691143  )
        34           Cu  tau(  34) = (   0.5000000   0.6735762   1.0691130  )
        35           Cu  tau(  35) = (   0.8333334   0.6735753   1.0691143  )
        36           Cu  tau(  36) = (   1.1666666   0.6735753   1.0691143  )
        37           Cu  tau(  37) = (   0.0000000   0.1924486   1.3387540  )
        38           Cu  tau(  38) = (   0.3333330   0.1924499   1.3387465  )
        39           Cu  tau(  39) = (   0.6666670   0.1924499   1.3387465  )
        40           Cu  tau(  40) = (   0.1666676   0.4811247   1.3387504  )
        41           Cu  tau(  41) = (   0.5000000   0.4811256   1.3387465  )
        42           Cu  tau(  42) = (   0.8333324   0.4811247   1.3387504  )
        43           Cu  tau(  43) = (   0.3333346   0.7698011   1.3387540  )
        44           Cu  tau(  44) = (   0.6666654   0.7698011   1.3387540  )
        45           Cu  tau(  45) = (   1.0000000   0.7698014   1.3387504  )
        46           Cu  tau(  46) = (   0.0000000   0.0000000   1.6083750  )
        47           Cu  tau(  47) = (   0.3333333   0.0000005   1.6083624  )
        48           Cu  tau(  48) = (   0.6666667   0.0000005   1.6083624  )
        49           Cu  tau(  49) = (   0.1666671   0.2886748   1.6083624  )
        50           Cu  tau(  50) = (   0.5000000   0.2886751   1.6083553  )
        51           Cu  tau(  51) = (   0.8333329   0.2886748   1.6083624  )
        52           Cu  tau(  52) = (   0.3333338   0.5773500   1.6083624  )
        53           Cu  tau(  53) = (   0.6666662   0.5773500   1.6083624  )
        54           Cu  tau(  54) = (   1.0000000   0.5773503   1.6083570  )
        55           C   tau(  55) = (   0.6567407   0.3959883   1.9401671  )
        56           C   tau(  56) = (   0.5046394   0.3028152   1.9401670  )
        57           C   tau(  57) = (   0.3478975   0.3879497   1.9401671  )
        58           C   tau(  58) = (   0.3432593   0.5662630   1.9401671  )
        59           C   tau(  59) = (   0.4953606   0.6594361   1.9401670  )
        60           C   tau(  60) = (   0.6521025   0.5743016   1.9401671  )
        61           H   tau(  61) = (   0.7789959   0.3295665   1.9402453  )
        62           H   tau(  62) = (   0.5082587   0.1637263   1.9402454  )
        63           H   tau(  63) = (   0.2292624   0.3152577   1.9402453  )
        64           H   tau(  64) = (   0.2210041   0.6326847   1.9402453  )
        65           H   tau(  65) = (   0.4917413   0.7985249   1.9402454  )
        66           H   tau(  66) = (   0.7707376   0.6469936   1.9402453  )

     number of k points=    10  gaussian smearing, width (Ry)=  0.0200
                       cart. coord. in units 2pi/alat
        k(    1) = (   0.0000000   0.0000000   0.0000000), wk =   0.1250000
        k(    2) = (   0.0000000   0.2886751   0.0000000), wk =   0.2500000
        k(    3) = (   0.0000000  -0.5773503   0.0000000), wk =   0.1250000
        k(    4) = (   0.2500000  -0.7216878   0.0000000), wk =   0.2500000
        k(    5) = (  -0.2500000   0.1443376   0.0000000), wk =   0.2500000
        k(    6) = (   0.2500000   0.1443376   0.0000000), wk =   0.2500000
        k(    7) = (   0.5000000  -0.2886751   0.0000000), wk =   0.1250000
        k(    8) = (  -0.5000000  -0.2886751   0.0000000), wk =   0.1250000
        k(    9) = (  -0.2500000  -0.7216878   0.0000000), wk =   0.2500000
        k(   10) = (  -0.5000000  -0.5773503   0.0000000), wk =   0.2500000

     Dense  grid:  2552337 G-vectors     FFT dimensions: ( 120, 120, 432)

     Smooth grid:   491295 G-vectors     FFT dimensions: (  72,  72, 243)

     Estimated max dynamical RAM per process >       1.14 GB

     Estimated total dynamical RAM >      18.26 GB

     Initial potential from superposition of free atoms
     Check: negative starting charge=   -0.000848

     starting charge 1001.99960, renormalised to 1056.00000

     negative rho (up, down):  8.934E-04 0.000E+00


     %%%%%%%%%%%%%%%%%%%%%%%%%%%%%%%%%%%%%%%%%%%%%%%%%%%%%%%%%%%%%%%%%%%%%%%%
     %                                                                      %
     % You are using vdW-DF, which was implemented by the Thonhauser group. %
     % Please cite the following two papers that made this development      %
     % possible and the two reviews that describe the various versions:     %
     %                                                                      %
     %   T. Thonhauser et al., PRL 115, 136402 (2015).                      %
     %   T. Thonhauser et al., PRB 76, 125112 (2007).                       %
     %   K. Berland et al., Rep. Prog. Phys. 78, 066501 (2015).             %
     %   D.C. Langreth et al., J. Phys.: Condens. Matter 21, 084203 (2009). %
     %                                                                      %
     %                                                                      %
     % If you are calculating the stress with vdW-DF, please also cite:     %
     %                                                                      %
     %   R. Sabatini et al., J. Phys.: Condens. Matter 24, 424209 (2012).   %
     %                                                                      %
     %%%%%%%%%%%%%%%%%%%%%%%%%%%%%%%%%%%%%%%%%%%%%%%%%%%%%%%%%%%%%%%%%%%%%%%%


     Starting wfcs are  732 randomized atomic wfcs

     total cpu time spent up to now is       70.6 secs

     Self-consistent Calculation

     iteration #  1     ecut=    50.00 Ry     beta= 0.30
     Davidson diagonalization with overlap
     ethr =  1.00E-02,  avg # of iterations =  6.0

     negative rho (up, down):  4.766E-04 0.000E+00

     total cpu time spent up to now is     1354.9 secs

     total energy              =  -18772.23896962 Ry
     Harris-Foulkes estimate   =  -22014.34208384 Ry
     estimated scf accuracy    <    6406.97299217 Ry

     iteration #  2     ecut=    50.00 Ry     beta= 0.30
     Davidson diagonalization with overlap
     c_bands:  2 eigenvalues not converged
     ethr =  1.00E-02,  avg # of iterations = 18.7

     negative rho (up, down):  5.228E-04 0.000E+00

     total cpu time spent up to now is     3976.5 secs

     total energy              =  -19200.29200044 Ry
     Harris-Foulkes estimate   =  -39137.95719736 Ry
     estimated scf accuracy    <  275808.27915046 Ry

     iteration #  3     ecut=    50.00 Ry     beta= 0.30
     Davidson diagonalization with overlap
     ethr =  1.00E-02,  avg # of iterations =  8.0

     negative rho (up, down):  5.942E-04 0.000E+00

     total cpu time spent up to now is     5610.1 secs

     total energy              =  -21490.46694381 Ry
     Harris-Foulkes estimate   =  -23590.04110466 Ry
     estimated scf accuracy    <   58293.77635453 Ry

     iteration #  4     ecut=    50.00 Ry     beta= 0.30
     Davidson diagonalization with overlap
     ethr =  1.00E-02,  avg # of iterations =  7.2

     negative rho (up, down):  7.309E-04 0.000E+00

     total cpu time spent up to now is     7157.3 secs

     total energy              =  -21644.89075286 Ry
     Harris-Foulkes estimate   =  -22155.21994838 Ry
     estimated scf accuracy    <   15764.58209771 Ry

     iteration #  5     ecut=    50.00 Ry     beta= 0.30
     Davidson diagonalization with overlap
     ethr =  1.00E-02,  avg # of iterations =  6.0

     negative rho (up, down):  8.031E-04 0.000E+00

     total cpu time spent up to now is     8229.6 secs

     total energy              =  -21800.45254715 Ry
     Harris-Foulkes estimate   =  -22224.56266567 Ry
     estimated scf accuracy    <    8513.52757954 Ry

     iteration #  6     ecut=    50.00 Ry     beta= 0.30
     Davidson diagonalization with overlap
     ethr =  1.00E-02,  avg # of iterations =  7.1

     negative rho (up, down):  9.427E-04 0.000E+00

     total cpu time spent up to now is     9289.4 secs

     total energy              =  -21901.37936513 Ry
     Harris-Foulkes estimate   =  -21972.09645918 Ry
     estimated scf accuracy    <    2597.83948162 Ry

     iteration #  7     ecut=    50.00 Ry     beta= 0.30
     Davidson diagonalization with overlap
     ethr =  1.00E-02,  avg # of iterations =  2.7

     negative rho (up, down):  1.111E-03 0.000E+00

     total cpu time spent up to now is     9523.6 secs

     total energy              =  -21913.06821117 Ry
     Harris-Foulkes estimate   =  -21940.10587518 Ry
     estimated scf accuracy    <     271.24638141 Ry

     iteration #  8     ecut=    50.00 Ry     beta= 0.30
     Davidson diagonalization with overlap
     ethr =  1.00E-02,  avg # of iterations =  3.0

     negative rho (up, down):  1.238E-03 0.000E+00

     total cpu time spent up to now is     9757.9 secs

     total energy              =  -21916.64926011 Ry
     Harris-Foulkes estimate   =  -21921.05992000 Ry
     estimated scf accuracy    <      99.30747368 Ry

     iteration #  9     ecut=    50.00 Ry     beta= 0.30
     Davidson diagonalization with overlap
     ethr =  9.40E-03,  avg # of iterations =  1.0

     negative rho (up, down):  1.359E-03 0.000E+00

     total cpu time spent up to now is     9936.5 secs

     total energy              =  -21909.99943524 Ry
     Harris-Foulkes estimate   =  -21917.59371318 Ry
     estimated scf accuracy    <     111.59202111 Ry

     iteration # 10     ecut=    50.00 Ry     beta= 0.30
     Davidson diagonalization with overlap
     ethr =  9.40E-03,  avg # of iterations =  1.0

     negative rho (up, down):  1.741E-03 0.000E+00

     total cpu time spent up to now is    10120.2 secs

     total energy              =  -21893.49446369 Ry
     Harris-Foulkes estimate   =  -21911.99652823 Ry
     estimated scf accuracy    <      89.06003587 Ry

     iteration # 11     ecut=    50.00 Ry     beta= 0.30
     Davidson diagonalization with overlap
     ethr =  8.43E-03,  avg # of iterations =  3.4

     negative rho (up, down):  1.688E-04 0.000E+00

     total cpu time spent up to now is    10479.2 secs

     total energy              =  -21898.92926863 Ry
     Harris-Foulkes estimate   =  -21924.82942240 Ry
     estimated scf accuracy    <     772.39151837 Ry

     iteration # 12     ecut=    50.00 Ry     beta= 0.30
     Davidson diagonalization with overlap
     ethr =  8.43E-03,  avg # of iterations =  1.9

     negative rho (up, down):  1.443E-04 0.000E+00

     total cpu time spent up to now is    10689.5 secs

     total energy              =  -21900.40108941 Ry
     Harris-Foulkes estimate   =  -21909.12032733 Ry
     estimated scf accuracy    <     108.27122820 Ry

     iteration # 13     ecut=    50.00 Ry     beta= 0.30
     Davidson diagonalization with overlap
     ethr =  8.43E-03,  avg # of iterations =  2.0

     negative rho (up, down):  1.608E-04 0.000E+00

     total cpu time spent up to now is    10898.4 secs

     total energy              =  -21902.50117910 Ry
     Harris-Foulkes estimate   =  -21904.69539872 Ry
     estimated scf accuracy    <      14.74703134 Ry

     iteration # 14     ecut=    50.00 Ry     beta= 0.30
     Davidson diagonalization with overlap
     ethr =  1.40E-03,  avg # of iterations =  5.0

     negative rho (up, down):  1.680E-04 0.000E+00

     total cpu time spent up to now is    11239.3 secs

     total energy              =  -21904.31311815 Ry
     Harris-Foulkes estimate   =  -21904.75299814 Ry
     estimated scf accuracy    <      13.63193144 Ry

     iteration # 15     ecut=    50.00 Ry     beta= 0.30
     Davidson diagonalization with overlap
     ethr =  1.29E-03,  avg # of iterations =  1.0

     negative rho (up, down):  2.064E-04 0.000E+00

     total cpu time spent up to now is    11416.7 secs

     total energy              =  -21904.07015985 Ry
     Harris-Foulkes estimate   =  -21904.52924363 Ry
     estimated scf accuracy    <       9.78283849 Ry

     iteration # 16     ecut=    50.00 Ry     beta= 0.30
     Davidson diagonalization with overlap
     ethr =  9.26E-04,  avg # of iterations =  1.0

     negative rho (up, down):  2.430E-04 0.000E+00

     total cpu time spent up to now is    11590.1 secs

     total energy              =  -21903.97802274 Ry
     Harris-Foulkes estimate   =  -21904.18343393 Ry
     estimated scf accuracy    <       7.16742526 Ry

     iteration # 17     ecut=    50.00 Ry     beta= 0.30
     Davidson diagonalization with overlap
     ethr =  6.79E-04,  avg # of iterations =  1.1

     negative rho (up, down):  3.829E-04 0.000E+00

     total cpu time spent up to now is    11776.3 secs

     total energy              =  -21903.79204298 Ry
     Harris-Foulkes estimate   =  -21904.02052773 Ry
     estimated scf accuracy    <       3.65188797 Ry

     iteration # 18     ecut=    50.00 Ry     beta= 0.30
     Davidson diagonalization with overlap
     ethr =  3.46E-04,  avg # of iterations =  5.8

     negative rho (up, down):  5.481E-04 0.000E+00

     total cpu time spent up to now is    12120.9 secs

     total energy              =  -21903.74669890 Ry
     Harris-Foulkes estimate   =  -21903.84693035 Ry
     estimated scf accuracy    <       1.55075304 Ry

     iteration # 19     ecut=    50.00 Ry     beta= 0.30
     Davidson diagonalization with overlap
     ethr =  1.47E-04,  avg # of iterations =  5.3

     negative rho (up, down):  6.295E-04 0.000E+00

     total cpu time spent up to now is    12436.6 secs

     total energy              =  -21903.76005830 Ry
     Harris-Foulkes estimate   =  -21903.77944145 Ry
     estimated scf accuracy    <       0.44998388 Ry

     iteration # 20     ecut=    50.00 Ry     beta= 0.30
     Davidson diagonalization with overlap
     ethr =  4.26E-05,  avg # of iterations =  8.4

     negative rho (up, down):  1.345E-03 0.000E+00

     total cpu time spent up to now is    12872.5 secs

     total energy              =  -21903.66265485 Ry
     Harris-Foulkes estimate   =  -21903.76709295 Ry
     estimated scf accuracy    <       0.57108101 Ry

     iteration # 21     ecut=    50.00 Ry     beta= 0.30
     Davidson diagonalization with overlap
     ethr =  4.26E-05,  avg # of iterations =  6.6

     negative rho (up, down):  1.115E-03 0.000E+00

     total cpu time spent up to now is    13289.8 secs

     total energy              =  -21903.65870504 Ry
     Harris-Foulkes estimate   =  -21903.77800998 Ry
     estimated scf accuracy    <       1.57023953 Ry

     iteration # 22     ecut=    50.00 Ry     beta= 0.30
     Davidson diagonalization with overlap
     ethr =  4.26E-05,  avg # of iterations =  3.7

     negative rho (up, down):  1.243E-03 0.000E+00

     total cpu time spent up to now is    13552.3 secs

     total energy              =  -21903.71474317 Ry
     Harris-Foulkes estimate   =  -21903.73334834 Ry
     estimated scf accuracy    <       0.13124096 Ry

     iteration # 23     ecut=    50.00 Ry     beta= 0.30
     Davidson diagonalization with overlap
     ethr =  1.24E-05,  avg # of iterations =  3.9

     negative rho (up, down):  1.324E-03 0.000E+00

     total cpu time spent up to now is    13831.3 secs

     total energy              =  -21903.72308661 Ry
     Harris-Foulkes estimate   =  -21903.72464739 Ry
     estimated scf accuracy    <       0.00523562 Ry

     iteration # 24     ecut=    50.00 Ry     beta= 0.30
     Davidson diagonalization with overlap
     ethr =  4.96E-07,  avg # of iterations =  7.8

     negative rho (up, down):  1.481E-03 0.000E+00

     total cpu time spent up to now is    14422.6 secs

     total energy              =  -21903.72317588 Ry
     Harris-Foulkes estimate   =  -21903.72437993 Ry
     estimated scf accuracy    <       0.01573682 Ry

     iteration # 25     ecut=    50.00 Ry     beta= 0.30
     Davidson diagonalization with overlap
     ethr =  4.96E-07,  avg # of iterations =  3.9

     negative rho (up, down):  1.741E-03 0.000E+00

     total cpu time spent up to now is    14703.9 secs

     total energy              =  -21903.72361016 Ry
     Harris-Foulkes estimate   =  -21903.72402103 Ry
     estimated scf accuracy    <       0.00537491 Ry

     iteration # 26     ecut=    50.00 Ry     beta= 0.30
     Davidson diagonalization with overlap
     ethr =  4.96E-07,  avg # of iterations =  7.7

     negative rho (up, down):  1.978E-03 0.000E+00

     total cpu time spent up to now is    15118.0 secs

     total energy              =  -21903.72381323 Ry
     Harris-Foulkes estimate   =  -21903.72388974 Ry
     estimated scf accuracy    <       0.00068445 Ry

     iteration # 27     ecut=    50.00 Ry     beta= 0.30
     Davidson diagonalization with overlap
     ethr =  6.48E-08,  avg # of iterations =  4.9

     negative rho (up, down):  2.075E-03 0.000E+00

     total cpu time spent up to now is    15414.4 secs

     total energy              =  -21903.72384126 Ry
     Harris-Foulkes estimate   =  -21903.72393640 Ry
     estimated scf accuracy    <       0.00094238 Ry

     iteration # 28     ecut=    50.00 Ry     beta= 0.30
     Davidson diagonalization with overlap
     ethr =  6.48E-08,  avg # of iterations =  1.3

     negative rho (up, down):  2.280E-03 0.000E+00

     total cpu time spent up to now is    15592.1 secs

     total energy              =  -21903.72390177 Ry
     Harris-Foulkes estimate   =  -21903.72393480 Ry
     estimated scf accuracy    <       0.00049932 Ry

     iteration # 29     ecut=    50.00 Ry     beta= 0.30
     Davidson diagonalization with overlap
     ethr =  4.73E-08,  avg # of iterations =  7.6

     negative rho (up, down):  2.409E-03 0.000E+00

     total cpu time spent up to now is    15952.0 secs

     total energy              =  -21903.72393289 Ry
     Harris-Foulkes estimate   =  -21903.72393195 Ry
     estimated scf accuracy    <       0.00005544 Ry

     iteration # 30     ecut=    50.00 Ry     beta= 0.30
     Davidson diagonalization with overlap
     ethr =  5.25E-09,  avg # of iterations =  2.9

     negative rho (up, down):  2.535E-03 0.000E+00

     total cpu time spent up to now is    16175.1 secs

     total energy              =  -21903.72393841 Ry
     Harris-Foulkes estimate   =  -21903.72393688 Ry
     estimated scf accuracy    <       0.00001256 Ry

     iteration # 31     ecut=    50.00 Ry     beta= 0.30
     Davidson diagonalization with overlap
     ethr =  1.19E-09,  avg # of iterations =  2.0

     negative rho (up, down):  2.630E-03 0.000E+00

     total cpu time spent up to now is    16372.0 secs

     total energy              =  -21903.72393963 Ry
     Harris-Foulkes estimate   =  -21903.72393958 Ry
     estimated scf accuracy    <       0.00000863 Ry

     iteration # 32     ecut=    50.00 Ry     beta= 0.30
     Davidson diagonalization with overlap
     ethr =  8.17E-10,  avg # of iterations =  2.0

     negative rho (up, down):  2.688E-03 0.000E+00

     total cpu time spent up to now is    16567.0 secs

     total energy              =  -21903.72393991 Ry
     Harris-Foulkes estimate   =  -21903.72394021 Ry
     estimated scf accuracy    <       0.00000133 Ry

     iteration # 33     ecut=    50.00 Ry     beta= 0.30
     Davidson diagonalization with overlap
     ethr =  1.26E-10,  avg # of iterations =  2.1

     negative rho (up, down):  2.711E-03 0.000E+00

     total cpu time spent up to now is    16768.1 secs

     total energy              =  -21903.72393995 Ry
     Harris-Foulkes estimate   =  -21903.72394011 Ry
     estimated scf accuracy    <       0.00000043 Ry

     iteration # 34     ecut=    50.00 Ry     beta= 0.30
     Davidson diagonalization with overlap
     ethr =  4.04E-11,  avg # of iterations =  2.0

     negative rho (up, down):  2.731E-03 0.000E+00

     total cpu time spent up to now is    16966.4 secs

     total energy              =  -21903.72393985 Ry
     Harris-Foulkes estimate   =  -21903.72394000 Ry
     estimated scf accuracy    <       0.00000020 Ry

     iteration # 35     ecut=    50.00 Ry     beta= 0.30
     Davidson diagonalization with overlap
     ethr =  1.87E-11,  avg # of iterations =  2.0

     negative rho (up, down):  2.743E-03 0.000E+00

     total cpu time spent up to now is    17167.7 secs

     total energy              =  -21903.72393976 Ry
     Harris-Foulkes estimate   =  -21903.72393987 Ry
     estimated scf accuracy    <       0.00000003 Ry

     iteration # 36     ecut=    50.00 Ry     beta= 0.30
     Davidson diagonalization with overlap
     ethr =  3.12E-12,  avg # of iterations =  3.0

     negative rho (up, down):  2.745E-03 0.000E+00

     total cpu time spent up to now is    17475.4 secs

     total energy              =  -21903.72393974 Ry
     Harris-Foulkes estimate   =  -21903.72393977 Ry
     estimated scf accuracy    <       0.00000002 Ry

     iteration # 37     ecut=    50.00 Ry     beta= 0.30
     Davidson diagonalization with overlap
     ethr =  1.61E-12,  avg # of iterations =  2.0

     negative rho (up, down):  2.747E-03 0.000E+00

     total cpu time spent up to now is    17680.7 secs

     total energy              =  -21903.72393972 Ry
     Harris-Foulkes estimate   =  -21903.72393974 Ry
     estimated scf accuracy    <       0.00000005 Ry

     iteration # 38     ecut=    50.00 Ry     beta= 0.30
     Davidson diagonalization with overlap
     ethr =  1.61E-12,  avg # of iterations =  2.0

     negative rho (up, down):  2.748E-03 0.000E+00

     total cpu time spent up to now is    17875.6 secs

     total energy              =  -21903.72393971 Ry
     Harris-Foulkes estimate   =  -21903.72393973 Ry
     estimated scf accuracy    <       0.00000003 Ry

     iteration # 39     ecut=    50.00 Ry     beta= 0.30
     Davidson diagonalization with overlap
     ethr =  1.61E-12,  avg # of iterations =  2.0

     negative rho (up, down):  2.750E-03 0.000E+00

     total cpu time spent up to now is    18086.8 secs

     End of self-consistent calculation

          k = 0.0000 0.0000 0.0000 ( 61453 PWs)   bands (ev):

  -107.6555-107.6386-107.6344-107.6344-107.6325-107.6303-107.6303-107.6302
  -107.6283-107.6276-107.6275-107.6275-107.6269-107.6269-107.6260-107.6260
  -107.6248-107.6247-107.6247-107.6233-107.6223-107.6211-107.6211-107.6191
  -107.6165-107.6147-107.6145-107.6145-107.6124-107.6124-107.6120-107.6120
  -107.6108-107.6101-107.6034-107.5928-107.5835-107.5809-107.5809-107.4732
  -107.4707-107.4706-107.4308-107.4283-107.4283-107.3772-107.3731-107.3731
  -107.3725-107.3710-107.3710-107.3705-107.3684-107.3684 -65.0995 -65.0888
   -65.0796 -65.0796 -65.0795 -65.0795 -65.0780 -65.0747 -65.0747 -65.0728
   -65.0715 -65.0715 -65.0700 -65.0693 -65.0693 -65.0686 -65.0674 -65.0670
   -65.0670 -65.0665 -65.0643 -65.0643 -65.0600 -65.0581 -65.0581 -65.0575
   -65.0563 -65.0563 -65.0550 -65.0536 -65.0536 -65.0531 -65.0531 -65.0529
   -65.0520 -65.0502 -65.0502 -65.0498 -65.0492 -65.0492 -65.0475 -65.0466
   -65.0463 -65.0463 -65.0442 -65.0442 -65.0434 -65.0415 -65.0415 -65.0411
   -65.0396 -65.0396 -65.0396 -65.0392 -65.0392 -65.0371 -65.0329 -65.0316
   -65.0316 -65.0313 -65.0313 -65.0303 -65.0298 -65.0298 -65.0284 -65.0283
   -65.0283 -65.0266 -65.0266 -65.0265 -65.0257 -65.0252 -65.0252 -65.0237
   -65.0212 -65.0212 -65.0211 -65.0206 -65.0205 -65.0205 -65.0188 -65.0188
   -65.0186 -65.0172 -65.0171 -65.0171 -65.0160 -65.0160 -65.0152 -65.0147
   -65.0147 -65.0142 -65.0124 -65.0124 -65.0122 -65.0115 -65.0104 -65.0096
   -65.0096 -65.0071 -65.0071 -65.0069 -65.0063 -65.0041 -65.0041 -65.0041
   -65.0010 -65.0010 -64.9955 -64.9955 -64.9942 -64.9942 -64.9941 -64.9941
   -64.9894 -64.9844 -64.9844 -64.9204 -64.9184 -64.9184 -64.9022 -64.8916
   -64.8916 -64.8802 -64.8711 -64.8711 -64.8586 -64.8569 -64.8563 -64.8563
   -64.8475 -64.8475 -64.8327 -64.8320 -64.8320 -64.8313 -64.8302 -64.8302
   -64.8282 -64.8282 -64.8282 -64.8277 -64.8122 -64.8100 -64.8100 -64.7965
   -64.7965 -64.7963 -64.7957 -64.7957 -64.7941 -64.7835 -64.7835 -64.7489
   -64.7450 -64.7450 -64.7444 -64.7429 -64.7429 -64.7420 -64.7400 -64.7400
   -13.4223 -10.6436 -10.6434  -7.0117  -7.0111  -5.0818  -3.9077  -3.4455
    -3.3088  -3.1008  -2.4432  -2.4359  -2.4358  -1.7585  -1.0710  -0.9441
    -0.9441  -0.9402  -0.9402  -0.9387  -0.9252  -0.5639  -0.5639  -0.5563
    -0.5563  -0.5384  -0.5268  -0.4712  -0.4710  -0.2950  -0.0819  -0.0819
    -0.0449  -0.0428  -0.0382  -0.0382  -0.0131   0.3448   0.3449   0.4051
     0.4099   0.4099   0.4222   0.6635   0.6635   0.7531   0.7531   0.7532
     0.7637   0.8607   0.8607   0.8849   0.8890   0.8890   0.8933   0.9135
     0.9135   0.9347   0.9347   0.9355   0.9390   0.9703   0.9703   0.9842
     0.9846   0.9846   0.9847   1.0068   1.0068   1.0791   1.0830   1.0969
     1.1001   1.1001   1.1035   1.1035   1.1086   1.1175   1.1175   1.1314
     1.1316   1.1316   1.1316   1.1538   1.1538   1.2245   1.2245   1.2989
     1.2989   1.3100   1.3144   1.3144   1.3188   1.3653   1.3653   1.3687
     1.3687   1.5467   1.5467   1.5527   1.5546   1.5783   1.5783   1.6994
     1.6994   1.7082   1.7082   1.7112   1.7112   1.7118   1.7163   1.7314
     1.7333   1.7375   1.7375   1.7615   1.7743   1.8242   1.8242   1.8253
     1.8300   1.8348   1.8348   1.8393   1.8404   1.8743   1.8743   1.8838
     1.9032   1.9043   1.9043   1.9110   1.9110   1.9134   1.9241   1.9241
     1.9585   1.9585   1.9628   1.9663   1.9663   1.9681   1.9681   1.9683
     1.9868   1.9897   1.9897   1.9918   1.9943   1.9943   1.9997   2.0002
     2.0002   2.0156   2.0239   2.0245   2.0245   2.0881   2.0881   2.1010
     2.1026   2.1026   2.1138   2.1417   2.1417   2.1490   2.1490   2.1735
     2.1740   2.1821   2.1834   2.1834   2.1918   2.1920   2.1920   2.1947
     2.1947   2.3412   2.3412   2.3497   2.3553   2.3920   2.3920   2.4268
     2.4318   2.4318   2.4419   2.4419   2.4451   2.4517   2.4517   2.4699
     2.4839   2.5184   2.5185   2.5307   2.5307   2.5413   2.5413   2.5555
     2.5559   2.6183   2.6200   2.6200   2.6217   2.6217   2.6336   2.6343
     2.6343   2.6406   2.6406   2.6591   2.6630   2.6630   2.6719   2.6719
     2.6734   2.6734   2.6759   2.6782   2.6918   2.6918   2.7405   2.7405
     2.8112   2.8133   2.8133   2.8169   2.8179   2.8179   2.8651   2.8667
     2.8667   2.8679   2.8773   2.8773   2.8784   2.8813   2.8829   2.8829
     2.8852   2.8852   2.9134   2.9134   2.9238   2.9369   2.9369   2.9436
     2.9436   2.9472   2.9533   2.9553   2.9553   2.9580   2.9606   2.9606
     2.9607   2.9636   2.9636   2.9656   2.9656   2.9730   2.9730   2.9736
     3.0025   3.0087   3.0087   3.0203   3.0203   3.0281   3.0296   3.0296
     3.0500   3.0519   3.0706   3.0706   3.0724   3.0724   3.0727   3.0761
     3.0850   3.0850   3.0973   3.0973   3.1149   3.1149   3.1215   3.1264
     3.1264   3.1302   3.1313   3.1333   3.1333   3.1375   3.1541   3.1541
     3.1581   3.1705   3.1705   3.1820   3.2170   3.2178   3.2178   3.2227
     3.2227   3.2232   3.2828   3.2828   4.0421   4.1125   4.1125   4.1334
     4.2663   4.2885   4.2885   4.8199   5.4830   5.4830   5.5533   5.7143
     5.7445   5.7445   6.5836   6.5838   6.9700   7.2890   7.4086   7.4244
     7.4245   7.6029   7.6029   8.0181   8.0181   8.0200   8.0205   8.0390
     8.0390   8.1961   8.4081   8.4081   8.4356   8.4356   8.4398   8.7685
     8.7929   8.8226   8.8967   8.8967   8.9737   9.0463   9.0566   9.3024
     9.3810   9.3810   9.5595   9.6915   9.6915   9.7218   9.7218   9.9547
     9.9813   9.9815  10.0703  10.0803  10.5264  10.5587  10.6596  10.6596
    10.7202  10.7202  10.8697  10.8697  11.0195  11.0195  11.0753  11.1334
    11.1334  11.1716  11.2168  11.3526  11.3526  11.4735  11.4909  11.4909
    11.5856  11.6320  11.6320  11.7925  11.8321  11.8322  11.9094  11.9094
    11.9850  12.0308  12.0308  12.0523  12.1030  12.1078  12.1078  12.2449
    12.2449  12.3087  12.3737  12.4222  12.4223  12.7328  12.7328  12.8079
    12.9204  12.9205  12.9584  13.0841  13.0844  13.1053  13.1155  13.1869
    13.2666  13.2893

          k = 0.0000 0.2887 0.0000 ( 61417 PWs)   bands (ev):

  -107.6555-107.6383-107.6349-107.6344-107.6326-107.6302-107.6302-107.6298
  -107.6282-107.6280-107.6277-107.6276-107.6268-107.6267-107.6259-107.6259
  -107.6250-107.6249-107.6246-107.6234-107.6223-107.6211-107.6210-107.6189
  -107.6166-107.6150-107.6146-107.6142-107.6128-107.6127-107.6118-107.6115
  -107.6106-107.6103-107.6034-107.5928-107.5835-107.5809-107.5809-107.4732
  -107.4707-107.4706-107.4308-107.4283-107.4283-107.3768-107.3739-107.3732
  -107.3724-107.3709-107.3707-107.3700-107.3685-107.3685 -65.0993 -65.0883
   -65.0826 -65.0815 -65.0808 -65.0802 -65.0797 -65.0781 -65.0771 -65.0757
   -65.0744 -65.0738 -65.0732 -65.0720 -65.0706 -65.0685 -65.0672 -65.0657
   -65.0656 -65.0644 -65.0625 -65.0624 -65.0621 -65.0611 -65.0600 -65.0597
   -65.0591 -65.0574 -65.0548 -65.0539 -65.0539 -65.0525 -65.0520 -65.0517
   -65.0506 -65.0493 -65.0491 -65.0469 -65.0466 -65.0463 -65.0447 -65.0442
   -65.0435 -65.0422 -65.0419 -65.0409 -65.0407 -65.0399 -65.0391 -65.0391
   -65.0375 -65.0374 -65.0366 -65.0359 -65.0357 -65.0341 -65.0336 -65.0333
   -65.0318 -65.0315 -65.0311 -65.0307 -65.0299 -65.0292 -65.0281 -65.0279
   -65.0270 -65.0264 -65.0253 -65.0253 -65.0247 -65.0244 -65.0232 -65.0232
   -65.0228 -65.0227 -65.0215 -65.0214 -65.0208 -65.0205 -65.0194 -65.0193
   -65.0186 -65.0181 -65.0180 -65.0175 -65.0172 -65.0169 -65.0158 -65.0153
   -65.0152 -65.0150 -65.0140 -65.0127 -65.0122 -65.0112 -65.0112 -65.0106
   -65.0096 -65.0092 -65.0091 -65.0079 -65.0064 -65.0055 -65.0054 -65.0041
   -65.0026 -65.0014 -64.9981 -64.9976 -64.9960 -64.9950 -64.9940 -64.9935
   -64.9890 -64.9843 -64.9840 -64.9199 -64.9188 -64.9178 -64.9029 -64.8930
   -64.8918 -64.8774 -64.8706 -64.8694 -64.8586 -64.8577 -64.8563 -64.8563
   -64.8494 -64.8479 -64.8429 -64.8377 -64.8372 -64.8358 -64.8354 -64.8243
   -64.8237 -64.8186 -64.8179 -64.8152 -64.8122 -64.8100 -64.8100 -64.8001
   -64.7998 -64.7988 -64.7960 -64.7952 -64.7917 -64.7877 -64.7846 -64.7485
   -64.7458 -64.7451 -64.7444 -64.7428 -64.7427 -64.7418 -64.7401 -64.7400
   -13.4215 -10.6472 -10.6442  -7.0144  -7.0068  -5.0520  -3.6953  -3.4161
    -3.1054  -3.1046  -2.5000  -2.4452  -2.2689  -2.0880  -1.7374  -1.5096
    -1.3792  -1.3692  -0.9504  -0.9084  -0.8732  -0.7303  -0.5328  -0.4953
    -0.3231  -0.3221  -0.2640  -0.2283  -0.1415  -0.1124  -0.0436  -0.0435
     0.0837   0.1151   0.1372   0.2216   0.2267   0.2336   0.3531   0.4072
     0.4289   0.4923   0.4938   0.6190   0.6897   0.7003   0.7289   0.7312
     0.7352   0.7652   0.7667   0.7723   0.7974   0.8168   0.8328   0.8346
     0.8419   0.8441   0.8832   0.8867   0.9106   0.9152   0.9278   0.9442
     0.9528   0.9726   0.9971   1.0170   1.0220   1.0237   1.0263   1.0408
     1.0423   1.0513   1.0562   1.0883   1.1001   1.1327   1.1904   1.1914
     1.1923   1.2215   1.2286   1.2361   1.2410   1.2693   1.2731   1.3053
     1.3121   1.3183   1.3824   1.3827   1.3958   1.4089   1.4222   1.4278
     1.4666   1.4683   1.4828   1.5052   1.5095   1.5131   1.5343   1.5846
     1.5855   1.5924   1.5970   1.6135   1.6394   1.6549   1.6637   1.6714
     1.6762   1.6897   1.7225   1.7231   1.7497   1.7795   1.8044   1.8068
     1.8068   1.8199   1.8212   1.8255   1.8519   1.8593   1.8705   1.8807
     1.8815   1.8867   1.8901   1.8946   1.9027   1.9155   1.9245   1.9437
     1.9497   1.9498   1.9559   1.9562   1.9592   1.9685   1.9691   1.9843
     1.9859   1.9908   1.9952   1.9971   2.0185   2.0195   2.0218   2.0277
     2.0294   2.0370   2.0379   2.0609   2.0628   2.0667   2.0700   2.0716
     2.1090   2.1135   2.1189   2.1284   2.1325   2.1366   2.1392   2.1467
     2.1490   2.1610   2.1644   2.1693   2.1785   2.2022   2.2179   2.2180
     2.2253   2.2372   2.2376   2.2558   2.2680   2.2869   2.2869   2.3060
     2.3171   2.3195   2.3464   2.3674   2.3726   2.3766   2.3808   2.3861
     2.4245   2.4547   2.4584   2.4668   2.4757   2.4833   2.4997   2.5031
     2.5325   2.5340   2.5351   2.5412   2.5457   2.5495   2.5560   2.5577
     2.6066   2.6122   2.6202   2.6209   2.6233   2.6455   2.6506   2.6527
     2.6592   2.6606   2.6847   2.6940   2.6997   2.7054   2.7089   2.7152
     2.7301   2.7309   2.7410   2.7495   2.7614   2.7619   2.7701   2.7736
     2.7769   2.7865   2.8383   2.8467   2.8519   2.8692   2.8699   2.8853
     2.8932   2.8955   2.8972   2.8981   2.9010   2.9088   2.9139   2.9184
     2.9261   2.9322   2.9400   2.9696   2.9769   2.9773   2.9804   2.9911
     2.9928   3.0043   3.0071   3.0182   3.0266   3.0283   3.0573   3.0575
     3.0757   3.0777   3.0826   3.0847   3.0921   3.0987   3.0994   3.1025
     3.1039   3.1052   3.1195   3.1198   3.1249   3.1262   3.1317   3.1385
     3.1591   3.1624   3.1658   3.1672   3.1694   3.1720   3.1728   3.1748
     3.1975   3.2083   3.2115   3.2204   3.2218   3.2343   3.2377   3.2518
     3.2621   3.3354   3.4072   3.4447   3.4760   3.4817   3.6007   3.6368
     3.6397   3.8884   3.9202   3.9419   3.9622   4.0424   4.2459   4.5413
     4.6946   4.8903   4.9207   5.1388   5.2304   5.3091   5.4131   5.9989
     6.0110   6.1538   6.2178   6.3658   6.3967   6.4009   6.5257   6.7561
     6.7833   7.0299   7.0375   7.0860   7.2090   7.2728   7.6305   7.9081
     7.9304   7.9546   8.0845   8.2038   8.3177   8.4000   8.4323   8.4954
     8.6271   8.7356   8.8758   8.8836   8.9969   9.0385   9.3101   9.4175
     9.4322   9.4998   9.5867   9.6810   9.8364   9.8768   9.9160  10.0254
    10.0644  10.1215  10.1951  10.2548  10.2965  10.4345  10.5592  10.5738
    10.5922  10.6035  10.6184  10.7212  10.7689  10.7946  10.8346  10.8946
    11.0572  11.0891  11.0963  11.1812  11.1899  11.2965  11.4663  11.4751
    11.5545  11.5784  11.6560  11.7489  11.8114  11.8902  11.9007  12.0460
    12.1072  12.1436  12.2269  12.2937  12.4264  12.4530  12.5605  12.5707
    12.6127  12.6790  12.7545  12.8028  12.8397  12.8614  12.9440  12.9847
    13.0069  13.0888  13.1450  13.1545  13.2345  13.3261  13.4007  13.4146
    13.5071  13.5637

          k = 0.0000-0.5774 0.0000 ( 61408 PWs)   bands (ev):

  -107.6555-107.6378-107.6355-107.6345-107.6327-107.6301-107.6300-107.6292
  -107.6285-107.6282-107.6278-107.6276-107.6268-107.6265-107.6257-107.6257
  -107.6253-107.6251-107.6246-107.6235-107.6223-107.6210-107.6208-107.6188
  -107.6167-107.6152-107.6146-107.6139-107.6133-107.6128-107.6118-107.6108
  -107.6107-107.6104-107.6034-107.5928-107.5835-107.5810-107.5809-107.4732
  -107.4707-107.4706-107.4309-107.4283-107.4283-107.3762-107.3749-107.3733
  -107.3726-107.3706-107.3705-107.3699-107.3687-107.3685 -65.0990 -65.0871
   -65.0856 -65.0840 -65.0832 -65.0810 -65.0798 -65.0787 -65.0783 -65.0770
   -65.0766 -65.0758 -65.0751 -65.0741 -65.0721 -65.0707 -65.0668 -65.0659
   -65.0658 -65.0642 -65.0640 -65.0630 -65.0626 -65.0625 -65.0616 -65.0596
   -65.0595 -65.0580 -65.0553 -65.0535 -65.0522 -65.0520 -65.0513 -65.0503
   -65.0498 -65.0474 -65.0455 -65.0447 -65.0434 -65.0433 -65.0427 -65.0420
   -65.0419 -65.0410 -65.0410 -65.0398 -65.0394 -65.0380 -65.0374 -65.0365
   -65.0359 -65.0352 -65.0351 -65.0350 -65.0336 -65.0330 -65.0326 -65.0317
   -65.0301 -65.0300 -65.0295 -65.0289 -65.0285 -65.0280 -65.0278 -65.0273
   -65.0266 -65.0266 -65.0262 -65.0253 -65.0247 -65.0247 -65.0230 -65.0226
   -65.0222 -65.0221 -65.0212 -65.0212 -65.0209 -65.0204 -65.0197 -65.0192
   -65.0189 -65.0184 -65.0179 -65.0175 -65.0172 -65.0171 -65.0169 -65.0165
   -65.0156 -65.0155 -65.0154 -65.0141 -65.0139 -65.0125 -65.0119 -65.0113
   -65.0111 -65.0101 -65.0093 -65.0088 -65.0083 -65.0072 -65.0067 -65.0060
   -65.0044 -65.0043 -64.9999 -64.9993 -64.9968 -64.9962 -64.9938 -64.9929
   -64.9888 -64.9842 -64.9836 -64.9207 -64.9177 -64.9172 -64.9037 -64.8943
   -64.8921 -64.8752 -64.8693 -64.8675 -64.8588 -64.8586 -64.8563 -64.8563
   -64.8519 -64.8483 -64.8470 -64.8400 -64.8395 -64.8384 -64.8380 -64.8206
   -64.8201 -64.8123 -64.8100 -64.8100 -64.8086 -64.8084 -64.8078 -64.8070
   -64.8004 -64.7999 -64.7989 -64.7965 -64.7963 -64.7883 -64.7869 -64.7479
   -64.7466 -64.7452 -64.7445 -64.7426 -64.7425 -64.7417 -64.7402 -64.7400
   -13.4207 -10.6508 -10.6449  -7.0177  -7.0018  -5.0212  -3.3865  -3.1090
    -3.0758  -3.0707  -2.6030  -2.5358  -2.4543  -2.4216  -1.9382  -1.5673
    -1.5359  -1.5345  -1.3591  -1.0371  -1.0126  -0.5999  -0.5303  -0.4904
    -0.4064  -0.3397  -0.2731   0.0756   0.2095   0.2628   0.2723   0.2802
     0.2816   0.2850   0.2872   0.3587   0.3617   0.4410   0.4456   0.4583
     0.4620   0.4761   0.4773   0.4812   0.4814   0.5251   0.5260   0.5319
     0.5321   0.6447   0.6661   0.6711   0.6915   0.6943   0.6963   0.7739
     0.7948   0.8506   0.8756   0.8792   0.8800   0.8816   0.8923   0.9142
     0.9169   0.9239   0.9244   0.9901   0.9956   1.0504   1.0510   1.0533
     1.0686   1.0752   1.0870   1.1431   1.1547   1.1550   1.1788   1.1794
     1.2123   1.2125   1.2511   1.2515   1.3038   1.3048   1.3086   1.3211
     1.3776   1.3786   1.4163   1.4184   1.4202   1.4257   1.4326   1.4468
     1.4569   1.4574   1.4862   1.5181   1.5224   1.5551   1.5591   1.5806
     1.5831   1.5913   1.5940   1.6087   1.6099   1.6140   1.6162   1.6573
     1.6642   1.6666   1.6724   1.6732   1.6857   1.7134   1.7237   1.7301
     1.7328   1.7410   1.7477   1.7479   1.7519   1.7634   1.7810   1.8214
     1.8422   1.8446   1.8459   1.8578   1.8671   1.8913   1.8934   1.8965
     1.8986   1.8999   1.9069   1.9247   1.9262   1.9391   1.9649   1.9661
     1.9677   1.9708   1.9855   1.9944   1.9972   2.0028   2.0296   2.0344
     2.0372   2.0444   2.0469   2.0563   2.0585   2.0643   2.0672   2.0828
     2.0919   2.1189   2.1361   2.1399   2.1810   2.1839   2.1856   2.1875
     2.1927   2.1954   2.1988   2.2023   2.2036   2.2102   2.2228   2.2272
     2.2275   2.2358   2.2413   2.2415   2.2445   2.2471   2.2473   2.3103
     2.3189   2.3229   2.3407   2.3592   2.3611   2.3718   2.3835   2.3979
     2.4030   2.4070   2.4097   2.4174   2.4297   2.4308   2.4507   2.4697
     2.4699   2.4747   2.4793   2.4870   2.4934   2.5107   2.5116   2.5148
     2.5192   2.5261   2.5316   2.5330   2.5379   2.5566   2.5569   2.6338
     2.6459   2.6587   2.6645   2.6786   2.6791   2.6929   2.6960   2.7144
     2.7179   2.7368   2.7454   2.7516   2.7642   2.7679   2.7753   2.7881
     2.7883   2.7978   2.8035   2.8071   2.8124   2.8237   2.8358   2.8379
     2.8498   2.8584   2.8655   2.8944   2.8948   2.9018   2.9035   2.9075
     2.9103   2.9151   2.9276   2.9506   2.9556   2.9764   2.9805   2.9904
     2.9908   3.0083   3.0197   3.0312   3.0339   3.0653   3.0657   3.0841
     3.0973   3.1072   3.1105   3.1267   3.1278   3.1296   3.1304   3.1315
     3.1326   3.1434   3.1671   3.1686   3.1693   3.1697   3.1702   3.1822
     3.1864   3.1923   3.1996   3.2075   3.2198   3.2203   3.2241   3.2276
     3.2288   3.2651   3.2723   3.2777   3.2824   3.2875   3.2876   3.2928
     3.3014   3.3193   3.4153   3.8978   3.9764   3.9980   4.0479   4.4286
     4.4935   4.4961   4.4965   4.4982   4.7391   4.7544   4.7575   4.7601
     5.0442   5.0970   5.1807   5.2284   5.2382   5.2922   5.3365   5.3740
     5.4509   5.5762   5.8964   6.0237   6.1345   6.1676   6.2541   6.2913
     6.3122   6.3575   6.3928   6.6939   6.8189   6.9117   7.0071   7.5757
     7.6085   7.6320   7.7863   7.8632   8.0129   8.3857   8.3982   8.4705
     8.7202   8.7339   8.7570   8.8136   8.9406   9.0286   9.0630   9.2473
     9.3576   9.3877   9.3889   9.4124   9.4645   9.5167   9.6044   9.7369
     9.8077   9.9081   9.9787  10.0662  10.1191  10.2419  10.3038  10.4018
    10.4211  10.5537  10.6436  10.6802  10.7179  10.7826  10.9401  11.0387
    11.0744  11.1023  11.2370  11.2562  11.2909  11.4256  11.4451  11.5111
    11.8070  11.8117  11.9032  12.0438  12.1662  12.2234  12.2804  12.3966
    12.4030  12.4369  12.4936  12.7143  12.7390  12.8018  12.8156  12.8896
    12.9149  13.0536  13.1486  13.1558  13.2500  13.3399  13.3798  13.3910
    13.4204  13.4459  13.4558  13.4834  13.5014  13.6561  13.6666  13.7025
    13.8954  13.8979

          k = 0.2500-0.7217 0.0000 ( 61343 PWs)   bands (ev):

  -107.6555-107.6378-107.6353-107.6348-107.6326-107.6301-107.6300-107.6292
  -107.6284-107.6282-107.6279-107.6276-107.6270-107.6261-107.6258-107.6257
  -107.6253-107.6251-107.6247-107.6235-107.6223-107.6210-107.6208-107.6188
  -107.6167-107.6152-107.6146-107.6139-107.6134-107.6128-107.6115-107.6112
  -107.6106-107.6103-107.6034-107.5928-107.5835-107.5810-107.5809-107.4732
  -107.4706-107.4706-107.4309-107.4283-107.4283-107.3762-107.3745-107.3740
  -107.3722-107.3706-107.3705-107.3700-107.3687-107.3684 -65.0990 -65.0871
   -65.0846 -65.0836 -65.0827 -65.0823 -65.0814 -65.0803 -65.0790 -65.0771
   -65.0762 -65.0757 -65.0729 -65.0713 -65.0707 -65.0703 -65.0692 -65.0683
   -65.0656 -65.0647 -65.0638 -65.0634 -65.0623 -65.0615 -65.0606 -65.0601
   -65.0587 -65.0576 -65.0559 -65.0554 -65.0527 -65.0512 -65.0505 -65.0500
   -65.0485 -65.0477 -65.0470 -65.0457 -65.0446 -65.0434 -65.0431 -65.0428
   -65.0419 -65.0414 -65.0403 -65.0400 -65.0383 -65.0369 -65.0366 -65.0359
   -65.0355 -65.0351 -65.0347 -65.0341 -65.0335 -65.0332 -65.0323 -65.0313
   -65.0310 -65.0305 -65.0296 -65.0295 -65.0288 -65.0280 -65.0273 -65.0269
   -65.0265 -65.0261 -65.0254 -65.0248 -65.0244 -65.0237 -65.0235 -65.0231
   -65.0228 -65.0224 -65.0216 -65.0214 -65.0206 -65.0204 -65.0200 -65.0199
   -65.0194 -65.0186 -65.0180 -65.0179 -65.0177 -65.0172 -65.0169 -65.0161
   -65.0159 -65.0156 -65.0152 -65.0141 -65.0132 -65.0127 -65.0122 -65.0118
   -65.0110 -65.0105 -65.0096 -65.0090 -65.0079 -65.0073 -65.0068 -65.0065
   -65.0031 -65.0019 -65.0007 -64.9989 -64.9972 -64.9970 -64.9938 -64.9930
   -64.9888 -64.9842 -64.9836 -64.9199 -64.9185 -64.9174 -64.9036 -64.8939
   -64.8925 -64.8744 -64.8699 -64.8680 -64.8586 -64.8585 -64.8564 -64.8563
   -64.8513 -64.8488 -64.8451 -64.8443 -64.8418 -64.8351 -64.8315 -64.8308
   -64.8123 -64.8120 -64.8100 -64.8100 -64.8099 -64.8089 -64.8085 -64.8034
   -64.8029 -64.8024 -64.8016 -64.7955 -64.7912 -64.7907 -64.7868 -64.7480
   -64.7463 -64.7457 -64.7442 -64.7426 -64.7425 -64.7418 -64.7402 -64.7400
   -13.4207 -10.6493 -10.6464  -7.0137  -7.0059  -5.0215  -3.3860  -3.2774
    -3.1087  -2.7175  -2.5380  -2.5102  -2.4585  -2.4396  -2.0732  -1.8947
    -1.8330  -1.5381  -1.0567  -0.9803  -0.6166  -0.5619  -0.5108  -0.4535
    -0.4502  -0.1294  -0.1115  -0.0818  -0.0519   0.1309   0.1346   0.1418
     0.2799   0.3023   0.3300   0.3312   0.3410   0.3924   0.3969   0.4018
     0.4233   0.5107   0.5154   0.5240   0.5250   0.5439   0.5701   0.6399
     0.6614   0.6719   0.6825   0.7124   0.7182   0.7200   0.7254   0.7329
     0.7499   0.7638   0.8253   0.8343   0.8527   0.8587   0.8713   0.8947
     0.8986   0.9258   0.9345   0.9505   1.0023   1.0120   1.0231   1.0336
     1.0361   1.0979   1.1137   1.1525   1.1723   1.1762   1.1853   1.1930
     1.2641   1.2734   1.2782   1.2826   1.2882   1.2973   1.3292   1.3456
     1.3542   1.4072   1.4097   1.4228   1.4283   1.4393   1.4461   1.4487
     1.4551   1.5012   1.5024   1.5086   1.5136   1.5230   1.5334   1.5508
     1.5555   1.5660   1.5701   1.5974   1.6040   1.6075   1.6191   1.6270
     1.6340   1.6637   1.7045   1.7077   1.7083   1.7148   1.7226   1.7330
     1.7529   1.7628   1.7779   1.7972   1.8027   1.8068   1.8121   1.8134
     1.8299   1.8312   1.8410   1.8522   1.8547   1.8788   1.8925   1.8939
     1.9000   1.9096   1.9159   1.9309   1.9318   1.9478   1.9509   1.9561
     1.9584   1.9659   1.9738   1.9859   2.0041   2.0253   2.0307   2.0348
     2.0406   2.0475   2.0585   2.0609   2.0714   2.0733   2.0743   2.0806
     2.0850   2.0910   2.0940   2.0980   2.1268   2.1307   2.1345   2.1367
     2.1640   2.1661   2.1689   2.1737   2.1788   2.1837   2.1860   2.1874
     2.1881   2.1901   2.2439   2.2465   2.2862   2.3104   2.3130   2.3164
     2.3240   2.3268   2.3362   2.3435   2.3627   2.3711   2.3844   2.3976
     2.4124   2.4146   2.4470   2.4507   2.4565   2.4713   2.4729   2.4809
     2.4862   2.4883   2.4913   2.4957   2.4975   2.5047   2.5188   2.5258
     2.5287   2.5579   2.5693   2.5729   2.5761   2.5893   2.6000   2.6107
     2.6171   2.6302   2.6386   2.6417   2.6478   2.6582   2.6921   2.6929
     2.6989   2.7073   2.7107   2.7289   2.7347   2.7606   2.7701   2.7766
     2.7844   2.7886   2.7993   2.8090   2.8269   2.8282   2.8361   2.8434
     2.8514   2.8526   2.8572   2.8607   2.8686   2.8770   2.9049   2.9230
     2.9312   2.9374   2.9437   2.9622   2.9816   2.9859   2.9989   3.0110
     3.0267   3.0464   3.0534   3.0596   3.0631   3.0692   3.0715   3.0984
     3.1017   3.1093   3.1113   3.1161   3.1223   3.1252   3.1288   3.1316
     3.1369   3.1382   3.1423   3.1438   3.1495   3.1568   3.1587   3.1645
     3.1703   3.1818   3.1832   3.1935   3.2076   3.2148   3.2201   3.2282
     3.2311   3.2455   3.2496   3.2589   3.2866   3.3067   3.3088   3.4817
     3.5243   3.5718   3.5739   3.6607   3.6697   3.8294   3.9895   4.0075
     4.3966   4.4620   4.4762   4.4794   4.5024   4.7496   4.8247   4.8624
     4.8790   4.9061   5.1272   5.2886   5.3298   5.3533   5.7994   5.8088
     5.8714   5.9497   6.0467   6.0895   6.0990   6.2511   6.2681   6.3029
     6.4045   6.6348   6.6404   6.8058   6.9412   6.9945   7.0664   7.2071
     7.2557   7.2667   7.3282   7.5568   7.6962   7.7924   8.0730   8.1548
     8.4665   8.6517   8.6652   8.7338   8.7719   8.8541   9.1301   9.1772
     9.3078   9.3791   9.4241   9.5478   9.5849   9.6257   9.7625   9.8075
     9.8608  10.0277  10.1515  10.2058  10.2169  10.4057  10.4303  10.5664
    10.5893  10.6640  10.8403  10.9219  11.0372  11.0767  11.1077  11.1532
    11.2233  11.3340  11.4157  11.6036  11.6350  11.6668  11.7144  11.7654
    11.8241  11.9110  11.9369  11.9562  12.0391  12.1250  12.1770  12.2615
    12.3119  12.3713  12.4839  12.5209  12.5693  12.6734  12.7049  12.7699
    12.7769  12.8146  12.9185  12.9351  12.9900  13.1059  13.1936  13.2166
    13.3382  13.3915  13.3982  13.4265  13.5479  13.5929  13.6869  13.7300
    13.7717  13.8002

          k =-0.2500 0.1443 0.0000 ( 61417 PWs)   bands (ev):

  -107.6555-107.6383-107.6349-107.6344-107.6326-107.6302-107.6302-107.6298
  -107.6282-107.6280-107.6277-107.6276-107.6268-107.6267-107.6259-107.6259
  -107.6250-107.6249-107.6246-107.6234-107.6223-107.6211-107.6210-107.6189
  -107.6166-107.6150-107.6146-107.6142-107.6128-107.6127-107.6118-107.6115
  -107.6106-107.6103-107.6034-107.5928-107.5835-107.5809-107.5809-107.4732
  -107.4706-107.4706-107.4308-107.4283-107.4283-107.3768-107.3739-107.3732
  -107.3724-107.3709-107.3707-107.3700-107.3685-107.3685 -65.0993 -65.0883
   -65.0826 -65.0815 -65.0808 -65.0802 -65.0797 -65.0781 -65.0771 -65.0757
   -65.0744 -65.0738 -65.0732 -65.0720 -65.0706 -65.0685 -65.0672 -65.0657
   -65.0656 -65.0644 -65.0625 -65.0624 -65.0621 -65.0611 -65.0600 -65.0597
   -65.0591 -65.0574 -65.0548 -65.0539 -65.0539 -65.0525 -65.0520 -65.0517
   -65.0506 -65.0493 -65.0491 -65.0469 -65.0466 -65.0463 -65.0447 -65.0442
   -65.0435 -65.0422 -65.0419 -65.0409 -65.0407 -65.0399 -65.0391 -65.0391
   -65.0375 -65.0374 -65.0366 -65.0359 -65.0357 -65.0341 -65.0336 -65.0333
   -65.0318 -65.0315 -65.0311 -65.0307 -65.0299 -65.0292 -65.0281 -65.0279
   -65.0270 -65.0264 -65.0253 -65.0253 -65.0247 -65.0244 -65.0232 -65.0232
   -65.0228 -65.0227 -65.0215 -65.0214 -65.0208 -65.0205 -65.0194 -65.0193
   -65.0186 -65.0181 -65.0180 -65.0175 -65.0172 -65.0169 -65.0158 -65.0153
   -65.0152 -65.0150 -65.0140 -65.0127 -65.0122 -65.0112 -65.0112 -65.0106
   -65.0096 -65.0092 -65.0091 -65.0079 -65.0064 -65.0055 -65.0054 -65.0041
   -65.0026 -65.0014 -64.9981 -64.9976 -64.9960 -64.9950 -64.9940 -64.9935
   -64.9890 -64.9843 -64.9840 -64.9199 -64.9188 -64.9178 -64.9029 -64.8930
   -64.8918 -64.8774 -64.8706 -64.8694 -64.8586 -64.8577 -64.8564 -64.8563
   -64.8494 -64.8479 -64.8429 -64.8377 -64.8372 -64.8358 -64.8354 -64.8243
   -64.8237 -64.8186 -64.8179 -64.8152 -64.8122 -64.8100 -64.8100 -64.8001
   -64.7998 -64.7988 -64.7960 -64.7952 -64.7917 -64.7877 -64.7846 -64.7485
   -64.7458 -64.7451 -64.7444 -64.7428 -64.7427 -64.7418 -64.7401 -64.7400
   -13.4215 -10.6470 -10.6444  -7.0149  -7.0063  -5.0520  -3.6953  -3.4161
    -3.1054  -3.1046  -2.4999  -2.4453  -2.2689  -2.0880  -1.7374  -1.5096
    -1.3792  -1.3692  -0.9504  -0.9084  -0.8732  -0.7303  -0.5326  -0.4955
    -0.3231  -0.3221  -0.2640  -0.2283  -0.1415  -0.1124  -0.0436  -0.0435
     0.0837   0.1151   0.1372   0.2216   0.2267   0.2336   0.3531   0.4072
     0.4289   0.4923   0.4938   0.6190   0.6897   0.7003   0.7289   0.7312
     0.7352   0.7652   0.7667   0.7723   0.7974   0.8168   0.8328   0.8346
     0.8419   0.8441   0.8832   0.8867   0.9106   0.9152   0.9278   0.9442
     0.9528   0.9726   0.9971   1.0170   1.0220   1.0237   1.0263   1.0408
     1.0423   1.0513   1.0562   1.0883   1.1000   1.1327   1.1904   1.1914
     1.1923   1.2215   1.2286   1.2361   1.2410   1.2693   1.2731   1.3053
     1.3121   1.3183   1.3824   1.3827   1.3958   1.4089   1.4222   1.4278
     1.4666   1.4683   1.4828   1.5052   1.5095   1.5131   1.5343   1.5846
     1.5855   1.5924   1.5970   1.6135   1.6394   1.6548   1.6637   1.6714
     1.6762   1.6897   1.7225   1.7231   1.7497   1.7795   1.8044   1.8068
     1.8068   1.8199   1.8212   1.8255   1.8519   1.8593   1.8705   1.8807
     1.8815   1.8867   1.8901   1.8946   1.9027   1.9155   1.9245   1.9437
     1.9497   1.9498   1.9559   1.9562   1.9592   1.9685   1.9691   1.9843
     1.9859   1.9908   1.9952   1.9971   2.0185   2.0195   2.0218   2.0277
     2.0294   2.0370   2.0379   2.0610   2.0628   2.0667   2.0700   2.0716
     2.1090   2.1135   2.1189   2.1284   2.1325   2.1366   2.1392   2.1467
     2.1490   2.1610   2.1644   2.1693   2.1785   2.2022   2.2179   2.2180
     2.2254   2.2372   2.2376   2.2558   2.2680   2.2869   2.2869   2.3060
     2.3171   2.3195   2.3464   2.3674   2.3726   2.3766   2.3808   2.3861
     2.4245   2.4547   2.4584   2.4668   2.4757   2.4833   2.4997   2.5031
     2.5325   2.5340   2.5351   2.5412   2.5457   2.5495   2.5560   2.5577
     2.6066   2.6122   2.6201   2.6209   2.6233   2.6455   2.6506   2.6527
     2.6592   2.6606   2.6847   2.6940   2.6997   2.7054   2.7089   2.7152
     2.7301   2.7309   2.7410   2.7495   2.7614   2.7619   2.7701   2.7736
     2.7769   2.7865   2.8383   2.8467   2.8519   2.8692   2.8699   2.8853
     2.8932   2.8955   2.8972   2.8981   2.9010   2.9088   2.9139   2.9184
     2.9261   2.9322   2.9400   2.9696   2.9769   2.9773   2.9804   2.9911
     2.9928   3.0043   3.0071   3.0182   3.0266   3.0283   3.0573   3.0575
     3.0757   3.0777   3.0826   3.0847   3.0921   3.0987   3.0994   3.1025
     3.1039   3.1052   3.1195   3.1198   3.1249   3.1262   3.1317   3.1385
     3.1591   3.1624   3.1658   3.1672   3.1694   3.1720   3.1728   3.1748
     3.1975   3.2083   3.2115   3.2204   3.2218   3.2343   3.2377   3.2518
     3.2620   3.3354   3.4072   3.4447   3.4760   3.4817   3.6007   3.6368
     3.6397   3.8884   3.9202   3.9418   3.9622   4.0424   4.2459   4.5413
     4.6946   4.8903   4.9207   5.1388   5.2304   5.3091   5.4131   5.9989
     6.0110   6.1539   6.2178   6.3658   6.3967   6.4009   6.5257   6.7561
     6.7833   7.0299   7.0375   7.0860   7.2090   7.2728   7.6305   7.9081
     7.9304   7.9546   8.0844   8.2038   8.3176   8.4000   8.4323   8.4954
     8.6271   8.7356   8.8758   8.8836   8.9968   9.0384   9.3101   9.4175
     9.4322   9.4998   9.5868   9.6810   9.8364   9.8768   9.9160  10.0253
    10.0644  10.1216  10.1951  10.2548  10.2965  10.4345  10.5592  10.5738
    10.5922  10.6035  10.6184  10.7212  10.7689  10.7946  10.8347  10.8946
    11.0572  11.0891  11.0963  11.1812  11.1899  11.2966  11.4663  11.4751
    11.5546  11.5783  11.6559  11.7489  11.8114  11.8902  11.9007  12.0460
    12.1072  12.1437  12.2269  12.2937  12.4265  12.4530  12.5605  12.5706
    12.6127  12.6790  12.7545  12.8028  12.8398  12.8614  12.9441  12.9847
    13.0069  13.0888  13.1450  13.1545  13.2345  13.3261  13.4007  13.4146
    13.5071  13.5636

          k = 0.2500 0.1443 0.0000 ( 61417 PWs)   bands (ev):

  -107.6555-107.6383-107.6349-107.6344-107.6326-107.6302-107.6302-107.6298
  -107.6282-107.6280-107.6277-107.6276-107.6268-107.6267-107.6259-107.6259
  -107.6250-107.6249-107.6246-107.6234-107.6223-107.6211-107.6210-107.6189
  -107.6166-107.6150-107.6146-107.6142-107.6128-107.6127-107.6118-107.6115
  -107.6106-107.6103-107.6034-107.5928-107.5835-107.5809-107.5809-107.4732
  -107.4706-107.4706-107.4308-107.4283-107.4283-107.3768-107.3739-107.3732
  -107.3724-107.3709-107.3707-107.3700-107.3685-107.3685 -65.0993 -65.0883
   -65.0826 -65.0815 -65.0808 -65.0802 -65.0797 -65.0781 -65.0771 -65.0757
   -65.0744 -65.0738 -65.0732 -65.0720 -65.0706 -65.0685 -65.0672 -65.0657
   -65.0656 -65.0644 -65.0625 -65.0624 -65.0621 -65.0611 -65.0600 -65.0597
   -65.0591 -65.0574 -65.0548 -65.0539 -65.0539 -65.0525 -65.0520 -65.0517
   -65.0506 -65.0493 -65.0491 -65.0469 -65.0466 -65.0463 -65.0447 -65.0442
   -65.0435 -65.0422 -65.0419 -65.0409 -65.0407 -65.0399 -65.0391 -65.0391
   -65.0375 -65.0374 -65.0366 -65.0359 -65.0357 -65.0341 -65.0336 -65.0333
   -65.0318 -65.0315 -65.0311 -65.0307 -65.0299 -65.0292 -65.0281 -65.0279
   -65.0270 -65.0264 -65.0253 -65.0253 -65.0247 -65.0244 -65.0232 -65.0232
   -65.0228 -65.0227 -65.0215 -65.0214 -65.0208 -65.0205 -65.0194 -65.0192
   -65.0186 -65.0181 -65.0180 -65.0175 -65.0172 -65.0169 -65.0158 -65.0153
   -65.0152 -65.0150 -65.0140 -65.0127 -65.0122 -65.0112 -65.0112 -65.0106
   -65.0096 -65.0092 -65.0091 -65.0079 -65.0064 -65.0055 -65.0054 -65.0041
   -65.0026 -65.0014 -64.9981 -64.9976 -64.9960 -64.9950 -64.9940 -64.9935
   -64.9890 -64.9843 -64.9840 -64.9199 -64.9188 -64.9179 -64.9029 -64.8930
   -64.8918 -64.8774 -64.8706 -64.8694 -64.8586 -64.8577 -64.8564 -64.8563
   -64.8494 -64.8479 -64.8429 -64.8377 -64.8372 -64.8358 -64.8354 -64.8243
   -64.8237 -64.8186 -64.8179 -64.8152 -64.8122 -64.8100 -64.8100 -64.8001
   -64.7998 -64.7988 -64.7960 -64.7952 -64.7917 -64.7877 -64.7846 -64.7485
   -64.7458 -64.7451 -64.7444 -64.7428 -64.7427 -64.7418 -64.7401 -64.7400
   -13.4215 -10.6470 -10.6443  -7.0148  -7.0064  -5.0520  -3.6953  -3.4161
    -3.1054  -3.1046  -2.5000  -2.4452  -2.2689  -2.0880  -1.7374  -1.5096
    -1.3792  -1.3692  -0.9504  -0.9084  -0.8732  -0.7303  -0.5327  -0.4954
    -0.3231  -0.3221  -0.2640  -0.2283  -0.1415  -0.1124  -0.0436  -0.0435
     0.0837   0.1151   0.1372   0.2216   0.2267   0.2336   0.3531   0.4072
     0.4289   0.4923   0.4938   0.6190   0.6897   0.7003   0.7289   0.7312
     0.7352   0.7652   0.7667   0.7723   0.7974   0.8168   0.8328   0.8346
     0.8419   0.8441   0.8832   0.8867   0.9106   0.9152   0.9278   0.9442
     0.9528   0.9726   0.9971   1.0170   1.0220   1.0237   1.0263   1.0408
     1.0423   1.0513   1.0562   1.0883   1.1000   1.1327   1.1904   1.1914
     1.1923   1.2215   1.2286   1.2361   1.2410   1.2693   1.2731   1.3053
     1.3121   1.3183   1.3824   1.3827   1.3958   1.4089   1.4222   1.4278
     1.4666   1.4683   1.4828   1.5052   1.5095   1.5131   1.5343   1.5846
     1.5855   1.5924   1.5970   1.6135   1.6394   1.6548   1.6637   1.6714
     1.6762   1.6897   1.7225   1.7231   1.7497   1.7795   1.8044   1.8068
     1.8068   1.8199   1.8212   1.8255   1.8519   1.8593   1.8705   1.8807
     1.8815   1.8867   1.8901   1.8946   1.9027   1.9155   1.9245   1.9437
     1.9497   1.9498   1.9559   1.9562   1.9592   1.9685   1.9691   1.9843
     1.9859   1.9908   1.9952   1.9971   2.0185   2.0195   2.0218   2.0277
     2.0294   2.0370   2.0379   2.0610   2.0628   2.0667   2.0700   2.0716
     2.1090   2.1135   2.1189   2.1284   2.1325   2.1366   2.1392   2.1467
     2.1490   2.1610   2.1644   2.1693   2.1785   2.2022   2.2179   2.2180
     2.2254   2.2372   2.2376   2.2558   2.2680   2.2869   2.2869   2.3060
     2.3171   2.3195   2.3464   2.3674   2.3726   2.3766   2.3808   2.3861
     2.4245   2.4547   2.4584   2.4668   2.4757   2.4833   2.4997   2.5031
     2.5325   2.5340   2.5351   2.5412   2.5457   2.5495   2.5560   2.5577
     2.6066   2.6122   2.6201   2.6209   2.6233   2.6455   2.6506   2.6527
     2.6592   2.6606   2.6847   2.6940   2.6997   2.7054   2.7089   2.7152
     2.7301   2.7309   2.7410   2.7495   2.7614   2.7619   2.7701   2.7736
     2.7769   2.7865   2.8383   2.8467   2.8519   2.8692   2.8699   2.8853
     2.8932   2.8955   2.8972   2.8981   2.9010   2.9088   2.9139   2.9184
     2.9261   2.9322   2.9400   2.9696   2.9769   2.9773   2.9804   2.9911
     2.9928   3.0043   3.0071   3.0182   3.0266   3.0283   3.0573   3.0575
     3.0757   3.0777   3.0826   3.0847   3.0921   3.0987   3.0994   3.1025
     3.1039   3.1052   3.1195   3.1198   3.1249   3.1262   3.1317   3.1385
     3.1591   3.1624   3.1658   3.1672   3.1694   3.1720   3.1728   3.1748
     3.1975   3.2083   3.2115   3.2204   3.2218   3.2343   3.2377   3.2518
     3.2620   3.3354   3.4072   3.4447   3.4760   3.4817   3.6007   3.6368
     3.6397   3.8884   3.9202   3.9418   3.9622   4.0424   4.2459   4.5413
     4.6946   4.8903   4.9207   5.1388   5.2304   5.3091   5.4131   5.9989
     6.0110   6.1539   6.2178   6.3658   6.3967   6.4009   6.5257   6.7561
     6.7833   7.0298   7.0375   7.0860   7.2090   7.2728   7.6305   7.9081
     7.9304   7.9546   8.0844   8.2038   8.3176   8.4000   8.4323   8.4954
     8.6271   8.7356   8.8758   8.8836   8.9968   9.0384   9.3101   9.4175
     9.4322   9.4998   9.5868   9.6810   9.8364   9.8768   9.9160  10.0253
    10.0644  10.1216  10.1951  10.2548  10.2965  10.4345  10.5592  10.5738
    10.5922  10.6035  10.6184  10.7212  10.7689  10.7946  10.8347  10.8946
    11.0572  11.0891  11.0963  11.1812  11.1899  11.2966  11.4663  11.4751
    11.5546  11.5783  11.6560  11.7489  11.8114  11.8902  11.9007  12.0460
    12.1072  12.1437  12.2269  12.2937  12.4265  12.4530  12.5605  12.5707
    12.6127  12.6790  12.7545  12.8027  12.8398  12.8614  12.9441  12.9847
    13.0069  13.0888  13.1450  13.1545  13.2345  13.3261  13.4007  13.4146
    13.5072  13.5636

          k = 0.5000-0.2887 0.0000 ( 61408 PWs)   bands (ev):

  -107.6555-107.6378-107.6355-107.6345-107.6327-107.6301-107.6300-107.6292
  -107.6285-107.6282-107.6278-107.6276-107.6268-107.6265-107.6257-107.6257
  -107.6253-107.6251-107.6246-107.6235-107.6223-107.6210-107.6209-107.6188
  -107.6167-107.6152-107.6146-107.6139-107.6133-107.6128-107.6118-107.6108
  -107.6107-107.6104-107.6034-107.5928-107.5835-107.5810-107.5809-107.4732
  -107.4706-107.4706-107.4309-107.4283-107.4283-107.3762-107.3749-107.3733
  -107.3726-107.3706-107.3705-107.3699-107.3687-107.3685 -65.0990 -65.0871
   -65.0856 -65.0840 -65.0832 -65.0810 -65.0798 -65.0787 -65.0783 -65.0770
   -65.0766 -65.0758 -65.0751 -65.0741 -65.0721 -65.0707 -65.0668 -65.0659
   -65.0658 -65.0642 -65.0640 -65.0630 -65.0626 -65.0625 -65.0616 -65.0596
   -65.0595 -65.0580 -65.0553 -65.0535 -65.0522 -65.0520 -65.0513 -65.0503
   -65.0498 -65.0474 -65.0455 -65.0447 -65.0434 -65.0433 -65.0427 -65.0420
   -65.0419 -65.0410 -65.0410 -65.0398 -65.0394 -65.0380 -65.0374 -65.0365
   -65.0359 -65.0352 -65.0351 -65.0350 -65.0336 -65.0330 -65.0326 -65.0317
   -65.0301 -65.0300 -65.0295 -65.0289 -65.0285 -65.0280 -65.0278 -65.0273
   -65.0266 -65.0266 -65.0262 -65.0253 -65.0247 -65.0247 -65.0230 -65.0226
   -65.0222 -65.0221 -65.0212 -65.0212 -65.0209 -65.0204 -65.0197 -65.0192
   -65.0189 -65.0184 -65.0179 -65.0175 -65.0172 -65.0171 -65.0169 -65.0165
   -65.0156 -65.0155 -65.0154 -65.0141 -65.0139 -65.0125 -65.0119 -65.0113
   -65.0111 -65.0101 -65.0093 -65.0088 -65.0083 -65.0072 -65.0067 -65.0060
   -65.0044 -65.0043 -64.9999 -64.9993 -64.9968 -64.9962 -64.9938 -64.9929
   -64.9888 -64.9842 -64.9836 -64.9206 -64.9177 -64.9172 -64.9037 -64.8943
   -64.8921 -64.8752 -64.8693 -64.8675 -64.8588 -64.8586 -64.8564 -64.8563
   -64.8519 -64.8483 -64.8470 -64.8400 -64.8395 -64.8384 -64.8380 -64.8206
   -64.8201 -64.8123 -64.8100 -64.8099 -64.8086 -64.8084 -64.8078 -64.8070
   -64.8004 -64.7999 -64.7989 -64.7965 -64.7963 -64.7883 -64.7869 -64.7479
   -64.7466 -64.7452 -64.7445 -64.7426 -64.7425 -64.7417 -64.7402 -64.7400
   -13.4207 -10.6506 -10.6451  -7.0182  -7.0014  -5.0212  -3.3865  -3.1090
    -3.0758  -3.0707  -2.6030  -2.5358  -2.4544  -2.4216  -1.9382  -1.5673
    -1.5359  -1.5345  -1.3591  -1.0371  -1.0126  -0.5998  -0.5303  -0.4906
    -0.4064  -0.3397  -0.2730   0.0756   0.2095   0.2628   0.2723   0.2802
     0.2816   0.2850   0.2872   0.3587   0.3617   0.4410   0.4456   0.4583
     0.4620   0.4761   0.4773   0.4812   0.4814   0.5251   0.5260   0.5319
     0.5321   0.6448   0.6661   0.6711   0.6915   0.6943   0.6963   0.7739
     0.7948   0.8507   0.8756   0.8792   0.8800   0.8816   0.8923   0.9142
     0.9169   0.9239   0.9244   0.9901   0.9956   1.0504   1.0510   1.0533
     1.0686   1.0752   1.0870   1.1431   1.1547   1.1550   1.1788   1.1794
     1.2123   1.2125   1.2511   1.2515   1.3038   1.3048   1.3086   1.3211
     1.3776   1.3786   1.4163   1.4184   1.4202   1.4257   1.4326   1.4468
     1.4569   1.4574   1.4862   1.5181   1.5224   1.5551   1.5591   1.5806
     1.5831   1.5913   1.5940   1.6087   1.6099   1.6140   1.6162   1.6573
     1.6642   1.6666   1.6724   1.6732   1.6857   1.7134   1.7237   1.7301
     1.7328   1.7410   1.7477   1.7479   1.7519   1.7634   1.7810   1.8214
     1.8422   1.8446   1.8459   1.8578   1.8671   1.8913   1.8934   1.8965
     1.8986   1.8999   1.9069   1.9247   1.9262   1.9391   1.9649   1.9661
     1.9677   1.9708   1.9855   1.9944   1.9972   2.0028   2.0296   2.0344
     2.0372   2.0444   2.0469   2.0563   2.0585   2.0643   2.0672   2.0828
     2.0919   2.1189   2.1361   2.1399   2.1810   2.1839   2.1856   2.1875
     2.1927   2.1954   2.1988   2.2023   2.2036   2.2102   2.2228   2.2272
     2.2275   2.2358   2.2413   2.2415   2.2445   2.2471   2.2473   2.3103
     2.3189   2.3229   2.3407   2.3592   2.3611   2.3718   2.3835   2.3979
     2.4030   2.4070   2.4097   2.4174   2.4297   2.4308   2.4507   2.4697
     2.4699   2.4747   2.4793   2.4870   2.4934   2.5107   2.5116   2.5148
     2.5192   2.5261   2.5316   2.5330   2.5379   2.5566   2.5569   2.6338
     2.6460   2.6587   2.6645   2.6787   2.6791   2.6929   2.6961   2.7144
     2.7179   2.7368   2.7454   2.7516   2.7642   2.7679   2.7753   2.7881
     2.7883   2.7978   2.8035   2.8071   2.8124   2.8237   2.8358   2.8379
     2.8498   2.8584   2.8655   2.8944   2.8948   2.9018   2.9035   2.9075
     2.9103   2.9151   2.9276   2.9506   2.9556   2.9764   2.9805   2.9904
     2.9908   3.0083   3.0197   3.0312   3.0339   3.0653   3.0657   3.0841
     3.0973   3.1072   3.1105   3.1267   3.1278   3.1296   3.1304   3.1315
     3.1326   3.1434   3.1671   3.1686   3.1693   3.1697   3.1702   3.1822
     3.1864   3.1923   3.1996   3.2075   3.2198   3.2203   3.2241   3.2276
     3.2288   3.2651   3.2723   3.2777   3.2824   3.2875   3.2876   3.2928
     3.3014   3.3193   3.4153   3.8978   3.9764   3.9980   4.0479   4.4286
     4.4935   4.4961   4.4965   4.4982   4.7391   4.7544   4.7575   4.7601
     5.0442   5.0970   5.1807   5.2284   5.2382   5.2922   5.3365   5.3740
     5.4509   5.5762   5.8964   6.0237   6.1345   6.1676   6.2541   6.2914
     6.3122   6.3575   6.3928   6.6938   6.8190   6.9117   7.0071   7.5757
     7.6085   7.6320   7.7864   7.8632   8.0128   8.3857   8.3982   8.4705
     8.7202   8.7338   8.7570   8.8136   8.9406   9.0286   9.0630   9.2472
     9.3576   9.3877   9.3889   9.4124   9.4645   9.5168   9.6045   9.7370
     9.8076   9.9081   9.9787  10.0662  10.1191  10.2419  10.3037  10.4018
    10.4212  10.5537  10.6436  10.6803  10.7179  10.7826  10.9401  11.0387
    11.0745  11.1024  11.2370  11.2562  11.2909  11.4256  11.4451  11.5112
    11.8070  11.8117  11.9031  12.0438  12.1663  12.2234  12.2805  12.3967
    12.4029  12.4369  12.4936  12.7144  12.7389  12.8018  12.8155  12.8895
    12.9148  13.0536  13.1486  13.1558  13.2500  13.3399  13.3798  13.3911
    13.4204  13.4459  13.4558  13.4834  13.5016  13.6561  13.6666  13.7025
    13.8954  13.8980

          k =-0.5000-0.2887 0.0000 ( 61408 PWs)   bands (ev):

  -107.6555-107.6378-107.6355-107.6345-107.6327-107.6301-107.6300-107.6292
  -107.6285-107.6282-107.6278-107.6276-107.6268-107.6265-107.6257-107.6257
  -107.6253-107.6251-107.6246-107.6235-107.6223-107.6210-107.6209-107.6188
  -107.6167-107.6152-107.6146-107.6139-107.6133-107.6128-107.6118-107.6108
  -107.6107-107.6104-107.6034-107.5928-107.5835-107.5810-107.5809-107.4732
  -107.4706-107.4706-107.4309-107.4283-107.4283-107.3762-107.3749-107.3733
  -107.3726-107.3706-107.3705-107.3699-107.3687-107.3685 -65.0990 -65.0871
   -65.0856 -65.0840 -65.0832 -65.0810 -65.0798 -65.0787 -65.0783 -65.0770
   -65.0766 -65.0758 -65.0751 -65.0741 -65.0721 -65.0707 -65.0668 -65.0659
   -65.0658 -65.0642 -65.0640 -65.0630 -65.0626 -65.0625 -65.0616 -65.0596
   -65.0595 -65.0580 -65.0553 -65.0535 -65.0522 -65.0520 -65.0513 -65.0503
   -65.0498 -65.0474 -65.0455 -65.0447 -65.0434 -65.0433 -65.0427 -65.0420
   -65.0419 -65.0411 -65.0410 -65.0398 -65.0394 -65.0380 -65.0374 -65.0365
   -65.0359 -65.0352 -65.0351 -65.0350 -65.0336 -65.0330 -65.0326 -65.0317
   -65.0301 -65.0300 -65.0295 -65.0289 -65.0285 -65.0280 -65.0278 -65.0273
   -65.0266 -65.0266 -65.0262 -65.0253 -65.0247 -65.0247 -65.0230 -65.0226
   -65.0222 -65.0221 -65.0212 -65.0212 -65.0209 -65.0204 -65.0197 -65.0192
   -65.0189 -65.0184 -65.0179 -65.0175 -65.0172 -65.0171 -65.0169 -65.0165
   -65.0156 -65.0155 -65.0154 -65.0141 -65.0139 -65.0125 -65.0119 -65.0113
   -65.0111 -65.0101 -65.0093 -65.0088 -65.0083 -65.0072 -65.0067 -65.0060
   -65.0044 -65.0043 -64.9999 -64.9993 -64.9968 -64.9962 -64.9938 -64.9929
   -64.9888 -64.9842 -64.9836 -64.9206 -64.9177 -64.9172 -64.9037 -64.8943
   -64.8921 -64.8752 -64.8693 -64.8675 -64.8588 -64.8586 -64.8564 -64.8563
   -64.8519 -64.8483 -64.8470 -64.8400 -64.8395 -64.8384 -64.8380 -64.8206
   -64.8201 -64.8123 -64.8100 -64.8099 -64.8086 -64.8084 -64.8078 -64.8070
   -64.8004 -64.7999 -64.7989 -64.7965 -64.7963 -64.7883 -64.7869 -64.7479
   -64.7466 -64.7452 -64.7445 -64.7426 -64.7425 -64.7417 -64.7402 -64.7400
   -13.4207 -10.6506 -10.6451  -7.0181  -7.0015  -5.0212  -3.3865  -3.1090
    -3.0758  -3.0707  -2.6030  -2.5358  -2.4543  -2.4216  -1.9382  -1.5673
    -1.5359  -1.5345  -1.3591  -1.0371  -1.0126  -0.5998  -0.5303  -0.4905
    -0.4064  -0.3397  -0.2730   0.0756   0.2095   0.2628   0.2723   0.2802
     0.2816   0.2850   0.2872   0.3587   0.3617   0.4410   0.4456   0.4583
     0.4620   0.4761   0.4773   0.4812   0.4814   0.5251   0.5260   0.5319
     0.5321   0.6447   0.6661   0.6711   0.6915   0.6943   0.6963   0.7739
     0.7948   0.8506   0.8756   0.8792   0.8800   0.8816   0.8923   0.9142
     0.9169   0.9239   0.9244   0.9901   0.9956   1.0504   1.0510   1.0533
     1.0686   1.0752   1.0870   1.1431   1.1547   1.1550   1.1788   1.1794
     1.2123   1.2125   1.2511   1.2515   1.3038   1.3048   1.3086   1.3211
     1.3776   1.3786   1.4163   1.4184   1.4202   1.4257   1.4326   1.4468
     1.4569   1.4574   1.4862   1.5181   1.5224   1.5551   1.5591   1.5806
     1.5831   1.5913   1.5940   1.6087   1.6099   1.6140   1.6162   1.6573
     1.6642   1.6666   1.6724   1.6732   1.6857   1.7134   1.7237   1.7301
     1.7328   1.7410   1.7477   1.7479   1.7519   1.7634   1.7810   1.8214
     1.8422   1.8446   1.8459   1.8578   1.8671   1.8913   1.8934   1.8965
     1.8986   1.8999   1.9069   1.9247   1.9262   1.9391   1.9649   1.9661
     1.9677   1.9708   1.9855   1.9944   1.9972   2.0028   2.0296   2.0344
     2.0372   2.0444   2.0469   2.0563   2.0585   2.0643   2.0672   2.0828
     2.0919   2.1189   2.1361   2.1399   2.1810   2.1839   2.1856   2.1875
     2.1927   2.1954   2.1988   2.2023   2.2036   2.2102   2.2228   2.2272
     2.2275   2.2358   2.2413   2.2415   2.2445   2.2471   2.2473   2.3103
     2.3189   2.3229   2.3407   2.3592   2.3611   2.3718   2.3835   2.3979
     2.4030   2.4070   2.4097   2.4174   2.4297   2.4308   2.4507   2.4697
     2.4699   2.4747   2.4793   2.4870   2.4934   2.5107   2.5116   2.5148
     2.5192   2.5261   2.5316   2.5330   2.5379   2.5566   2.5569   2.6338
     2.6460   2.6587   2.6645   2.6787   2.6791   2.6929   2.6961   2.7144
     2.7179   2.7368   2.7454   2.7516   2.7642   2.7679   2.7753   2.7881
     2.7883   2.7978   2.8035   2.8071   2.8124   2.8237   2.8358   2.8379
     2.8498   2.8584   2.8655   2.8944   2.8948   2.9018   2.9035   2.9075
     2.9103   2.9151   2.9276   2.9506   2.9556   2.9764   2.9805   2.9904
     2.9908   3.0083   3.0197   3.0312   3.0339   3.0653   3.0657   3.0841
     3.0973   3.1072   3.1105   3.1267   3.1278   3.1296   3.1304   3.1315
     3.1326   3.1434   3.1671   3.1686   3.1693   3.1697   3.1702   3.1822
     3.1864   3.1923   3.1996   3.2075   3.2198   3.2203   3.2241   3.2276
     3.2288   3.2651   3.2723   3.2777   3.2824   3.2875   3.2876   3.2928
     3.3014   3.3193   3.4153   3.8978   3.9764   3.9980   4.0479   4.4286
     4.4935   4.4961   4.4965   4.4982   4.7391   4.7544   4.7575   4.7601
     5.0442   5.0970   5.1807   5.2284   5.2382   5.2922   5.3365   5.3740
     5.4509   5.5762   5.8964   6.0237   6.1345   6.1676   6.2541   6.2914
     6.3122   6.3575   6.3928   6.6938   6.8190   6.9117   7.0071   7.5757
     7.6085   7.6320   7.7864   7.8632   8.0128   8.3857   8.3982   8.4705
     8.7202   8.7338   8.7570   8.8136   8.9406   9.0286   9.0630   9.2472
     9.3576   9.3877   9.3889   9.4124   9.4645   9.5168   9.6044   9.7370
     9.8077   9.9081   9.9787  10.0662  10.1191  10.2419  10.3038  10.4018
    10.4212  10.5537  10.6436  10.6803  10.7179  10.7826  10.9401  11.0387
    11.0745  11.1024  11.2370  11.2562  11.2909  11.4256  11.4450  11.5112
    11.8070  11.8117  11.9031  12.0438  12.1663  12.2234  12.2805  12.3968
    12.4029  12.4369  12.4936  12.7143  12.7389  12.8018  12.8155  12.8895
    12.9148  13.0536  13.1486  13.1558  13.2500  13.3399  13.3798  13.3911
    13.4204  13.4459  13.4558  13.4834  13.5016  13.6561  13.6666  13.7025
    13.8954  13.8979

          k =-0.2500-0.7217 0.0000 ( 61343 PWs)   bands (ev):

  -107.6555-107.6378-107.6353-107.6348-107.6326-107.6301-107.6300-107.6292
  -107.6284-107.6282-107.6279-107.6276-107.6270-107.6261-107.6258-107.6257
  -107.6253-107.6251-107.6247-107.6235-107.6223-107.6210-107.6208-107.6188
  -107.6167-107.6152-107.6146-107.6139-107.6134-107.6128-107.6115-107.6112
  -107.6106-107.6103-107.6034-107.5928-107.5835-107.5810-107.5809-107.4732
  -107.4706-107.4706-107.4309-107.4283-107.4283-107.3762-107.3745-107.3739
  -107.3722-107.3706-107.3705-107.3700-107.3687-107.3684 -65.0990 -65.0871
   -65.0846 -65.0836 -65.0827 -65.0823 -65.0814 -65.0803 -65.0790 -65.0771
   -65.0762 -65.0757 -65.0729 -65.0713 -65.0707 -65.0703 -65.0692 -65.0683
   -65.0656 -65.0647 -65.0638 -65.0634 -65.0623 -65.0615 -65.0606 -65.0601
   -65.0587 -65.0576 -65.0559 -65.0554 -65.0527 -65.0512 -65.0505 -65.0500
   -65.0485 -65.0477 -65.0470 -65.0457 -65.0446 -65.0434 -65.0431 -65.0428
   -65.0419 -65.0414 -65.0403 -65.0400 -65.0383 -65.0369 -65.0366 -65.0359
   -65.0355 -65.0351 -65.0347 -65.0341 -65.0335 -65.0332 -65.0323 -65.0313
   -65.0310 -65.0305 -65.0296 -65.0295 -65.0288 -65.0280 -65.0273 -65.0269
   -65.0265 -65.0261 -65.0254 -65.0248 -65.0244 -65.0237 -65.0235 -65.0231
   -65.0228 -65.0224 -65.0216 -65.0214 -65.0206 -65.0204 -65.0200 -65.0199
   -65.0194 -65.0186 -65.0180 -65.0179 -65.0177 -65.0172 -65.0169 -65.0161
   -65.0159 -65.0156 -65.0152 -65.0141 -65.0132 -65.0127 -65.0122 -65.0118
   -65.0110 -65.0105 -65.0096 -65.0090 -65.0079 -65.0073 -65.0068 -65.0065
   -65.0031 -65.0019 -65.0007 -64.9989 -64.9972 -64.9970 -64.9938 -64.9930
   -64.9888 -64.9842 -64.9836 -64.9199 -64.9185 -64.9174 -64.9036 -64.8939
   -64.8925 -64.8744 -64.8699 -64.8680 -64.8586 -64.8585 -64.8564 -64.8563
   -64.8513 -64.8488 -64.8451 -64.8443 -64.8418 -64.8351 -64.8315 -64.8308
   -64.8123 -64.8120 -64.8100 -64.8100 -64.8099 -64.8089 -64.8085 -64.8034
   -64.8029 -64.8024 -64.8016 -64.7955 -64.7912 -64.7907 -64.7868 -64.7480
   -64.7463 -64.7457 -64.7442 -64.7426 -64.7425 -64.7418 -64.7402 -64.7400
   -13.4207 -10.6493 -10.6464  -7.0138  -7.0058  -5.0215  -3.3860  -3.2774
    -3.1087  -2.7175  -2.5379  -2.5102  -2.4585  -2.4396  -2.0732  -1.8947
    -1.8330  -1.5381  -1.0567  -0.9803  -0.6167  -0.5618  -0.5109  -0.4535
    -0.4502  -0.1294  -0.1115  -0.0818  -0.0519   0.1309   0.1346   0.1418
     0.2799   0.3023   0.3300   0.3312   0.3410   0.3924   0.3969   0.4018
     0.4233   0.5107   0.5154   0.5240   0.5250   0.5439   0.5701   0.6399
     0.6614   0.6719   0.6825   0.7124   0.7182   0.7200   0.7254   0.7329
     0.7499   0.7638   0.8253   0.8343   0.8527   0.8587   0.8713   0.8947
     0.8986   0.9258   0.9345   0.9505   1.0023   1.0120   1.0231   1.0336
     1.0361   1.0979   1.1137   1.1525   1.1723   1.1762   1.1853   1.1930
     1.2641   1.2734   1.2782   1.2826   1.2882   1.2973   1.3292   1.3456
     1.3542   1.4072   1.4097   1.4228   1.4283   1.4393   1.4461   1.4487
     1.4551   1.5012   1.5024   1.5086   1.5136   1.5230   1.5334   1.5508
     1.5555   1.5660   1.5701   1.5974   1.6040   1.6075   1.6191   1.6270
     1.6340   1.6637   1.7045   1.7077   1.7083   1.7148   1.7226   1.7330
     1.7529   1.7628   1.7779   1.7972   1.8027   1.8068   1.8121   1.8134
     1.8299   1.8312   1.8410   1.8522   1.8547   1.8788   1.8925   1.8939
     1.9000   1.9096   1.9159   1.9309   1.9318   1.9478   1.9509   1.9561
     1.9584   1.9659   1.9738   1.9859   2.0041   2.0253   2.0307   2.0348
     2.0406   2.0475   2.0585   2.0609   2.0714   2.0733   2.0743   2.0806
     2.0850   2.0910   2.0940   2.0980   2.1268   2.1307   2.1345   2.1367
     2.1640   2.1661   2.1689   2.1737   2.1788   2.1837   2.1860   2.1874
     2.1881   2.1901   2.2439   2.2465   2.2862   2.3104   2.3130   2.3164
     2.3240   2.3268   2.3362   2.3435   2.3627   2.3711   2.3844   2.3976
     2.4124   2.4146   2.4470   2.4507   2.4565   2.4713   2.4729   2.4809
     2.4862   2.4883   2.4913   2.4957   2.4975   2.5047   2.5188   2.5258
     2.5287   2.5579   2.5693   2.5729   2.5761   2.5893   2.6000   2.6107
     2.6171   2.6302   2.6386   2.6417   2.6478   2.6582   2.6921   2.6929
     2.6989   2.7073   2.7107   2.7289   2.7347   2.7606   2.7701   2.7766
     2.7844   2.7886   2.7993   2.8090   2.8269   2.8282   2.8361   2.8434
     2.8514   2.8526   2.8572   2.8607   2.8686   2.8770   2.9049   2.9230
     2.9312   2.9374   2.9437   2.9622   2.9816   2.9859   2.9989   3.0110
     3.0267   3.0464   3.0534   3.0596   3.0631   3.0692   3.0715   3.0984
     3.1017   3.1093   3.1113   3.1161   3.1223   3.1252   3.1288   3.1316
     3.1369   3.1382   3.1422   3.1438   3.1495   3.1568   3.1587   3.1645
     3.1703   3.1818   3.1832   3.1935   3.2076   3.2148   3.2201   3.2282
     3.2311   3.2455   3.2496   3.2589   3.2866   3.3067   3.3088   3.4817
     3.5243   3.5718   3.5739   3.6607   3.6697   3.8294   3.9895   4.0075
     4.3966   4.4620   4.4762   4.4794   4.5024   4.7496   4.8247   4.8624
     4.8790   4.9061   5.1272   5.2886   5.3298   5.3533   5.7994   5.8088
     5.8714   5.9497   6.0467   6.0895   6.0990   6.2511   6.2681   6.3029
     6.4045   6.6348   6.6404   6.8058   6.9412   6.9945   7.0664   7.2071
     7.2557   7.2667   7.3282   7.5568   7.6962   7.7924   8.0730   8.1548
     8.4664   8.6517   8.6652   8.7338   8.7719   8.8541   9.1301   9.1772
     9.3078   9.3791   9.4241   9.5478   9.5849   9.6257   9.7625   9.8075
     9.8608  10.0276  10.1515  10.2058  10.2169  10.4057  10.4303  10.5664
    10.5893  10.6640  10.8403  10.9219  11.0372  11.0767  11.1077  11.1532
    11.2233  11.3340  11.4157  11.6036  11.6350  11.6668  11.7144  11.7654
    11.8241  11.9110  11.9369  11.9562  12.0391  12.1250  12.1770  12.2615
    12.3119  12.3713  12.4839  12.5210  12.5693  12.6734  12.7049  12.7699
    12.7770  12.8145  12.9185  12.9351  12.9900  13.1059  13.1936  13.2166
    13.3382  13.3914  13.3982  13.4265  13.5479  13.5929  13.6869  13.7300
    13.7716  13.8000

          k =-0.5000-0.5774 0.0000 ( 61343 PWs)   bands (ev):

  -107.6555-107.6378-107.6353-107.6348-107.6326-107.6301-107.6300-107.6292
  -107.6284-107.6282-107.6279-107.6276-107.6270-107.6261-107.6258-107.6257
  -107.6253-107.6251-107.6247-107.6235-107.6223-107.6210-107.6208-107.6188
  -107.6167-107.6152-107.6146-107.6139-107.6134-107.6128-107.6115-107.6112
  -107.6106-107.6103-107.6034-107.5928-107.5835-107.5810-107.5809-107.4732
  -107.4706-107.4706-107.4309-107.4283-107.4283-107.3762-107.3745-107.3739
  -107.3722-107.3706-107.3705-107.3700-107.3687-107.3684 -65.0990 -65.0871
   -65.0846 -65.0836 -65.0827 -65.0823 -65.0814 -65.0803 -65.0790 -65.0771
   -65.0762 -65.0757 -65.0729 -65.0713 -65.0707 -65.0703 -65.0692 -65.0683
   -65.0656 -65.0647 -65.0638 -65.0634 -65.0623 -65.0615 -65.0606 -65.0601
   -65.0587 -65.0576 -65.0559 -65.0554 -65.0527 -65.0512 -65.0505 -65.0500
   -65.0485 -65.0477 -65.0470 -65.0457 -65.0446 -65.0434 -65.0431 -65.0428
   -65.0419 -65.0414 -65.0403 -65.0400 -65.0383 -65.0369 -65.0366 -65.0359
   -65.0355 -65.0351 -65.0347 -65.0341 -65.0335 -65.0332 -65.0323 -65.0313
   -65.0310 -65.0305 -65.0296 -65.0295 -65.0288 -65.0280 -65.0273 -65.0269
   -65.0265 -65.0261 -65.0254 -65.0248 -65.0244 -65.0237 -65.0235 -65.0231
   -65.0228 -65.0224 -65.0216 -65.0214 -65.0206 -65.0204 -65.0200 -65.0199
   -65.0194 -65.0186 -65.0180 -65.0179 -65.0177 -65.0172 -65.0169 -65.0161
   -65.0159 -65.0156 -65.0152 -65.0141 -65.0132 -65.0127 -65.0122 -65.0118
   -65.0110 -65.0105 -65.0096 -65.0090 -65.0079 -65.0073 -65.0068 -65.0065
   -65.0031 -65.0019 -65.0007 -64.9989 -64.9972 -64.9970 -64.9938 -64.9930
   -64.9888 -64.9842 -64.9836 -64.9199 -64.9185 -64.9174 -64.9036 -64.8939
   -64.8925 -64.8744 -64.8699 -64.8680 -64.8586 -64.8585 -64.8564 -64.8563
   -64.8513 -64.8488 -64.8451 -64.8443 -64.8418 -64.8351 -64.8315 -64.8308
   -64.8123 -64.8120 -64.8100 -64.8100 -64.8099 -64.8089 -64.8085 -64.8034
   -64.8029 -64.8024 -64.8016 -64.7955 -64.7912 -64.7907 -64.7868 -64.7480
   -64.7463 -64.7457 -64.7442 -64.7426 -64.7425 -64.7418 -64.7402 -64.7400
   -13.4207 -10.6491 -10.6466  -7.0141  -7.0054  -5.0215  -3.3860  -3.2774
    -3.1087  -2.7175  -2.5379  -2.5102  -2.4585  -2.4396  -2.0732  -1.8947
    -1.8330  -1.5381  -1.0567  -0.9803  -0.6167  -0.5617  -0.5110  -0.4535
    -0.4502  -0.1294  -0.1115  -0.0818  -0.0519   0.1309   0.1346   0.1418
     0.2799   0.3023   0.3300   0.3312   0.3410   0.3924   0.3969   0.4018
     0.4233   0.5107   0.5154   0.5240   0.5250   0.5439   0.5701   0.6399
     0.6614   0.6719   0.6825   0.7124   0.7182   0.7200   0.7254   0.7329
     0.7499   0.7638   0.8253   0.8343   0.8527   0.8587   0.8713   0.8947
     0.8986   0.9258   0.9345   0.9505   1.0023   1.0120   1.0231   1.0336
     1.0361   1.0979   1.1137   1.1525   1.1723   1.1762   1.1853   1.1930
     1.2641   1.2734   1.2782   1.2826   1.2882   1.2973   1.3292   1.3456
     1.3542   1.4072   1.4097   1.4228   1.4283   1.4393   1.4461   1.4487
     1.4551   1.5012   1.5024   1.5086   1.5136   1.5230   1.5334   1.5508
     1.5555   1.5660   1.5701   1.5974   1.6040   1.6075   1.6191   1.6270
     1.6340   1.6637   1.7045   1.7077   1.7083   1.7148   1.7227   1.7330
     1.7529   1.7628   1.7779   1.7972   1.8027   1.8068   1.8121   1.8134
     1.8299   1.8312   1.8410   1.8522   1.8547   1.8788   1.8925   1.8939
     1.9000   1.9096   1.9159   1.9309   1.9318   1.9478   1.9509   1.9561
     1.9584   1.9659   1.9738   1.9858   2.0041   2.0253   2.0307   2.0348
     2.0406   2.0475   2.0585   2.0609   2.0714   2.0733   2.0743   2.0806
     2.0850   2.0910   2.0940   2.0980   2.1268   2.1307   2.1345   2.1367
     2.1640   2.1661   2.1689   2.1737   2.1788   2.1837   2.1860   2.1874
     2.1881   2.1901   2.2438   2.2465   2.2862   2.3104   2.3130   2.3164
     2.3240   2.3268   2.3362   2.3435   2.3627   2.3711   2.3844   2.3976
     2.4124   2.4146   2.4470   2.4507   2.4565   2.4713   2.4729   2.4809
     2.4862   2.4883   2.4913   2.4957   2.4975   2.5047   2.5188   2.5258
     2.5287   2.5579   2.5693   2.5729   2.5761   2.5893   2.6000   2.6107
     2.6171   2.6302   2.6386   2.6417   2.6478   2.6582   2.6921   2.6929
     2.6989   2.7073   2.7107   2.7289   2.7347   2.7606   2.7701   2.7766
     2.7844   2.7886   2.7993   2.8090   2.8269   2.8282   2.8361   2.8434
     2.8514   2.8525   2.8572   2.8607   2.8686   2.8770   2.9049   2.9230
     2.9312   2.9374   2.9437   2.9622   2.9816   2.9859   2.9989   3.0110
     3.0267   3.0464   3.0534   3.0596   3.0631   3.0692   3.0715   3.0984
     3.1017   3.1093   3.1113   3.1161   3.1223   3.1252   3.1288   3.1316
     3.1369   3.1382   3.1423   3.1438   3.1495   3.1568   3.1587   3.1645
     3.1703   3.1818   3.1832   3.1935   3.2076   3.2148   3.2201   3.2282
     3.2311   3.2455   3.2496   3.2589   3.2866   3.3067   3.3088   3.4817
     3.5243   3.5718   3.5739   3.6607   3.6697   3.8294   3.9895   4.0075
     4.3966   4.4620   4.4762   4.4795   4.5024   4.7496   4.8247   4.8624
     4.8790   4.9061   5.1272   5.2886   5.3298   5.3533   5.7994   5.8088
     5.8714   5.9498   6.0467   6.0895   6.0990   6.2511   6.2681   6.3029
     6.4045   6.6348   6.6404   6.8058   6.9412   6.9945   7.0664   7.2071
     7.2558   7.2667   7.3283   7.5568   7.6962   7.7923   8.0730   8.1547
     8.4664   8.6517   8.6652   8.7339   8.7719   8.8541   9.1300   9.1772
     9.3079   9.3791   9.4241   9.5478   9.5849   9.6257   9.7625   9.8075
     9.8608  10.0276  10.1515  10.2058  10.2169  10.4057  10.4303  10.5664
    10.5893  10.6640  10.8403  10.9219  11.0372  11.0767  11.1077  11.1532
    11.2233  11.3340  11.4157  11.6035  11.6351  11.6668  11.7144  11.7654
    11.8241  11.9110  11.9369  11.9561  12.0391  12.1249  12.1770  12.2615
    12.3120  12.3713  12.4838  12.5209  12.5693  12.6734  12.7049  12.7699
    12.7769  12.8145  12.9185  12.9351  12.9900  13.1059  13.1936  13.2166
    13.3382  13.3914  13.3983  13.4265  13.5479  13.5928  13.6869  13.7300
    13.7716  13.8001

     the Fermi energy is     4.8035 ev

!    total energy              =  -21903.72393968 Ry
     Harris-Foulkes estimate   =  -21903.72393971 Ry
     estimated scf accuracy    <          6.5E-09 Ry

     The total energy is the sum of the following terms:

     one-electron contribution = -210000.55128129 Ry
     hartree contribution      =  105209.22531017 Ry
     xc contribution           =   -2143.38380060 Ry
     ewald contribution        =   85031.03989521 Ry
     smearing contrib. (-TS)   =      -0.05406317 Ry

     convergence has been achieved in  39 iterations
 
     init_run     :     67.67s CPU     70.34s WALL (       1 calls)
     electrons    :  17654.74s CPU  18016.19s WALL (       1 calls)

     Called by init_run:
     wfcinit      :     57.17s CPU     59.13s WALL (       1 calls)
     potinit      :      7.24s CPU      7.45s WALL (       1 calls)
     hinit0       :      1.40s CPU      1.42s WALL (       1 calls)

     Called by electrons:
     c_bands      :  16487.94s CPU  16784.68s WALL (      39 calls)
     sum_band     :    865.15s CPU    903.79s WALL (      39 calls)
     v_of_rho     :    247.80s CPU    257.14s WALL (      40 calls)
     newd         :     49.95s CPU     67.01s WALL (      40 calls)
     mix_rho      :      6.94s CPU      7.07s WALL (      39 calls)

     Called by c_bands:
     init_us_2    :     17.66s CPU     17.76s WALL (     790 calls)
     cegterg      :  16359.20s CPU  16650.17s WALL (     390 calls)

     Called by sum_band:
     sum_band:bec :      3.20s CPU      3.20s WALL (     390 calls)
     addusdens    :     41.86s CPU     64.37s WALL (      39 calls)

     Called by *egterg:
     h_psi        :   3800.85s CPU   3891.75s WALL (    2050 calls)
     s_psi        :    398.77s CPU    399.12s WALL (    2050 calls)
     g_psi        :      7.05s CPU      7.09s WALL (    1650 calls)
     cdiaghg      :  10125.95s CPU  10220.19s WALL (    2040 calls)

     Called by h_psi:
     h_psi:pot    :   3790.11s CPU   3862.42s WALL (    2050 calls)
     h_psi:calbec :    446.10s CPU    447.01s WALL (    2050 calls)
     vloc_psi     :   2943.65s CPU   3013.76s WALL (    2050 calls)
     add_vuspsi   :    400.33s CPU    401.63s WALL (    2050 calls)

     General routines
     calbec       :    606.00s CPU    607.17s WALL (    2440 calls)
     fft          :    217.41s CPU    219.33s WALL (    2519 calls)
     ffts         :      2.13s CPU      2.15s WALL (      79 calls)
     fftw         :   3221.98s CPU   3299.06s WALL ( 1550632 calls)
     interpolate  :      3.44s CPU      3.48s WALL (      40 calls)
 
     Parallel routines
     fft_scatt_xy :    323.34s CPU    327.22s WALL ( 1553230 calls)
     fft_scatt_yz :   2101.60s CPU   2160.73s WALL ( 1553230 calls)
 
     PWSCF        :     4h55m CPU       55h 5m WALL

       1h
 
   This run was terminated on:  22:25:11  25Nov2019            

=------------------------------------------------------------------------------=
   JOB DONE.
=------------------------------------------------------------------------------=
