
     Program PWSCF v.6.3MaX starts on 20Nov2019 at 14:19:43 

     This program is part of the open-source Quantum ESPRESSO suite
     for quantum simulation of materials; please cite
         "P. Giannozzi et al., J. Phys.:Condens. Matter 21 395502 (2009);
         "P. Giannozzi et al., J. Phys.:Condens. Matter 29 465901 (2017);
          URL http://www.quantum-espresso.org", 
     in publications or presentations arising from this work. More details at
     http://www.quantum-espresso.org/quote

     Parallel version (MPI), running on    16 processors

     MPI processes distributed on     2 nodes
     R & G space division:  proc/nbgrp/npool/nimage =      16
     Waiting for input...
     Reading input from standard input

     Current dimensions of program PWSCF are:
     Max number of different atomic species (ntypx) = 10
     Max number of k-points (npk) =  40000
     Max angular momentum in pseudopotentials (lmaxx) =  3
     Message from routine iosys:
     minimal I/O required, wf_collect reset to FALSE

     IMPORTANT: XC functional enforced from input :
     Exchange-correlation      = VDW-DF ( 1  4  4  0 1 0)
     Any further DFT definition will be discarded
     Please, verify this is what you really want


     Subspace diagonalization in iterative solution of the eigenvalue problem:
     one sub-group per band group will be used
     scalapack distributed-memory algorithm (size of sub-group:  2*  2 procs)

 
     Parallelization info
     --------------------
     sticks:   dense  smooth     PW     G-vecs:    dense   smooth      PW
     Min         565     189     51               159513    30701    4383
     Max         566     190     52               159526    30710    4400
     Sum        9055    3037    823              2552337   491295   70261
 


     bravais-lattice index     =            0
     lattice parameter (alat)  =      14.8058  a.u.
     unit-cell volume          =   10282.4791 (a.u.)^3
     number of atoms/cell      =           66
     number of atomic types    =            3
     number of electrons       =      1056.00
     number of Kohn-Sham states=          634
     kinetic-energy cutoff     =      50.0000  Ry
     charge density cutoff     =     600.0000  Ry
     convergence threshold     =      1.0E-08
     mixing beta               =       0.3000
     number of iterations used =            8  plain     mixing
     Exchange-correlation      = VDW-DF ( 1  4  4  0 1 0)

     celldm(1)=  14.805786  celldm(2)=   0.000000  celldm(3)=   0.000000
     celldm(4)=   0.000000  celldm(5)=   0.000000  celldm(6)=   0.000000

     crystal axes: (cart. coord. in units of alat)
               a(1) = (   1.000000   0.000000   0.000000 )  
               a(2) = (   0.500000   0.866025   0.000000 )  
               a(3) = (   0.000000   0.000000   3.658245 )  

     reciprocal axes: (cart. coord. in units 2 pi/alat)
               b(1) = (  1.000000 -0.577350  0.000000 )  
               b(2) = (  0.000000  1.154701  0.000000 )  
               b(3) = (  0.000000  0.000000  0.273355 )  


     PseudoPot. # 1 for Cu read from file:
     /deac/thonhauserGrp/chakrad/calculations/atomandmolecule-qe6.2.1-i2012-C6modif/all_pbe_UPF_v1.5/cu_pbe_v1.2.uspp.F.UPF
     MD5 check sum: 6e991ff952a84172a2a52a1c1e996048
     Pseudo is Ultrasoft + core correction, Zval = 19.0
     Generated by new atomic code, or converted to UPF format
     Using radial grid of  867 points,  6 beta functions with: 
                l(1) =   0
                l(2) =   0
                l(3) =   1
                l(4) =   1
                l(5) =   2
                l(6) =   2
     Q(r) pseudized with  8 coefficients,  rinner =    1.150   1.150   1.150
                                                       1.150   1.150

     PseudoPot. # 2 for C  read from file:
     /deac/thonhauserGrp/chakrad/calculations/atomandmolecule-qe6.2.1-i2012-C6modif/all_pbe_UPF_v1.5/c_pbe_v1.2.uspp.F.UPF
     MD5 check sum: d1aef80898a10debaa0f26306b886e00
     Pseudo is Ultrasoft + core correction, Zval =  4.0
     Generated by new atomic code, or converted to UPF format
     Using radial grid of  721 points,  4 beta functions with: 
                l(1) =   0
                l(2) =   0
                l(3) =   1
                l(4) =   1
     Q(r) pseudized with  8 coefficients,  rinner =    1.100   1.100   1.100


     PseudoPot. # 3 for H  read from file:
     /deac/thonhauserGrp/chakrad/calculations/atomandmolecule-qe6.2.1-i2012-C6modif/all_pbe_UPF_v1.5/h_pbe_v1.4.uspp.F.UPF
     MD5 check sum: 761ae9a214b05c3daf00ab9f6b793d6f
     Pseudo is Ultrasoft, Zval =  1.0
     Generated by new atomic code, or converted to UPF format
     Using radial grid of  615 points,  2 beta functions with: 
                l(1) =   0
                l(2) =   0
     Q(r) pseudized with  8 coefficients,  rinner =    0.700

     vdW kernel table read from file vdW_kernel_table
     MD5 check sum: cc9485f6209b1096fbef62427c856dab

     atomic species   valence    mass     pseudopotential
        Cu            19.00     1.00000     Cu( 1.00)
        C              4.00     1.00000     C ( 1.00)
        H              1.00     1.00000     H ( 1.00)

     No symmetry found



   Cartesian axes

     site n.     atom                  positions (alat units)
         1           Cu  tau(   1) = (   0.1666667   0.0962250   0.2552686  )
         2           Cu  tau(   2) = (   0.5000000   0.0962250   0.2552686  )
         3           Cu  tau(   3) = (   0.8333333   0.0962250   0.2552686  )
         4           Cu  tau(   4) = (   0.3333333   0.3849002   0.2552686  )
         5           Cu  tau(   5) = (   0.6666667   0.3849002   0.2552686  )
         6           Cu  tau(   6) = (   1.0000000   0.3849002   0.2552686  )
         7           Cu  tau(   7) = (   0.5000000   0.6735753   0.2552686  )
         8           Cu  tau(   8) = (   0.8333333   0.6735753   0.2552686  )
         9           Cu  tau(   9) = (   1.1666667   0.6735753   0.2552686  )
        10           Cu  tau(  10) = (   0.0000000   0.1924501   0.5274341  )
        11           Cu  tau(  11) = (   0.3333333   0.1924501   0.5274341  )
        12           Cu  tau(  12) = (   0.6666667   0.1924501   0.5274341  )
        13           Cu  tau(  13) = (   0.1666667   0.4811252   0.5274341  )
        14           Cu  tau(  14) = (   0.5000000   0.4811252   0.5274341  )
        15           Cu  tau(  15) = (   0.8333333   0.4811252   0.5274341  )
        16           Cu  tau(  16) = (   0.3333333   0.7698004   0.5274341  )
        17           Cu  tau(  17) = (   0.6666667   0.7698004   0.5274341  )
        18           Cu  tau(  18) = (   1.0000000   0.7698004   0.5274341  )
        19           Cu  tau(  19) = (   0.0000000   0.0000000   0.7995997  )
        20           Cu  tau(  20) = (   0.3333333   0.0000000   0.7995997  )
        21           Cu  tau(  21) = (   0.6666667   0.0000000   0.7995997  )
        22           Cu  tau(  22) = (   0.1666667   0.2886751   0.7995997  )
        23           Cu  tau(  23) = (   0.5000000   0.2886751   0.7995997  )
        24           Cu  tau(  24) = (   0.8333333   0.2886751   0.7995997  )
        25           Cu  tau(  25) = (   0.3333333   0.5773503   0.7995997  )
        26           Cu  tau(  26) = (   0.6666667   0.5773503   0.7995997  )
        27           Cu  tau(  27) = (   1.0000000   0.5773503   0.7995997  )
        28           Cu  tau(  28) = (   0.1666659   0.0962246   1.0691130  )
        29           Cu  tau(  29) = (   0.5000000   0.0962241   1.0691104  )
        30           Cu  tau(  30) = (   0.8333341   0.0962246   1.0691130  )
        31           Cu  tau(  31) = (   0.3333325   0.3849006   1.0691104  )
        32           Cu  tau(  32) = (   0.6666675   0.3849006   1.0691104  )
        33           Cu  tau(  33) = (   1.0000000   0.3849003   1.0691143  )
        34           Cu  tau(  34) = (   0.5000000   0.6735762   1.0691130  )
        35           Cu  tau(  35) = (   0.8333334   0.6735753   1.0691143  )
        36           Cu  tau(  36) = (   1.1666666   0.6735753   1.0691143  )
        37           Cu  tau(  37) = (   0.0000000   0.1924486   1.3387540  )
        38           Cu  tau(  38) = (   0.3333330   0.1924499   1.3387465  )
        39           Cu  tau(  39) = (   0.6666670   0.1924499   1.3387465  )
        40           Cu  tau(  40) = (   0.1666676   0.4811247   1.3387504  )
        41           Cu  tau(  41) = (   0.5000000   0.4811256   1.3387465  )
        42           Cu  tau(  42) = (   0.8333324   0.4811247   1.3387504  )
        43           Cu  tau(  43) = (   0.3333346   0.7698011   1.3387540  )
        44           Cu  tau(  44) = (   0.6666654   0.7698011   1.3387540  )
        45           Cu  tau(  45) = (   1.0000000   0.7698014   1.3387504  )
        46           Cu  tau(  46) = (   0.0000000   0.0000000   1.6083750  )
        47           Cu  tau(  47) = (   0.3333333   0.0000005   1.6083624  )
        48           Cu  tau(  48) = (   0.6666667   0.0000005   1.6083624  )
        49           Cu  tau(  49) = (   0.1666671   0.2886748   1.6083624  )
        50           Cu  tau(  50) = (   0.5000000   0.2886751   1.6083553  )
        51           Cu  tau(  51) = (   0.8333329   0.2886748   1.6083624  )
        52           Cu  tau(  52) = (   0.3333338   0.5773500   1.6083624  )
        53           Cu  tau(  53) = (   0.6666662   0.5773500   1.6083624  )
        54           Cu  tau(  54) = (   1.0000000   0.5773503   1.6083570  )
        55           C   tau(  55) = (   0.6567407   0.3959883   2.0486562  )
        56           C   tau(  56) = (   0.5046394   0.3028152   2.0486562  )
        57           C   tau(  57) = (   0.3478975   0.3879497   2.0486562  )
        58           C   tau(  58) = (   0.3432593   0.5662630   2.0486562  )
        59           C   tau(  59) = (   0.4953606   0.6594361   2.0486562  )
        60           C   tau(  60) = (   0.6521025   0.5743016   2.0486562  )
        61           H   tau(  61) = (   0.7789959   0.3295665   2.0487345  )
        62           H   tau(  62) = (   0.5082587   0.1637263   2.0487345  )
        63           H   tau(  63) = (   0.2292624   0.3152577   2.0487345  )
        64           H   tau(  64) = (   0.2210041   0.6326847   2.0487345  )
        65           H   tau(  65) = (   0.4917413   0.7985249   2.0487345  )
        66           H   tau(  66) = (   0.7707376   0.6469936   2.0487345  )

     number of k points=    10  gaussian smearing, width (Ry)=  0.0200
                       cart. coord. in units 2pi/alat
        k(    1) = (   0.0000000   0.0000000   0.0000000), wk =   0.1250000
        k(    2) = (   0.0000000   0.2886751   0.0000000), wk =   0.2500000
        k(    3) = (   0.0000000  -0.5773503   0.0000000), wk =   0.1250000
        k(    4) = (   0.2500000  -0.7216878   0.0000000), wk =   0.2500000
        k(    5) = (  -0.2500000   0.1443376   0.0000000), wk =   0.2500000
        k(    6) = (   0.2500000   0.1443376   0.0000000), wk =   0.2500000
        k(    7) = (   0.5000000  -0.2886751   0.0000000), wk =   0.1250000
        k(    8) = (  -0.5000000  -0.2886751   0.0000000), wk =   0.1250000
        k(    9) = (  -0.2500000  -0.7216878   0.0000000), wk =   0.2500000
        k(   10) = (  -0.5000000  -0.5773503   0.0000000), wk =   0.2500000

     Dense  grid:  2552337 G-vectors     FFT dimensions: ( 120, 120, 432)

     Smooth grid:   491295 G-vectors     FFT dimensions: (  72,  72, 243)

     Estimated max dynamical RAM per process >       1.14 GB

     Estimated total dynamical RAM >      18.26 GB

     Initial potential from superposition of free atoms
     Check: negative starting charge=   -0.000751

     starting charge 1001.99960, renormalised to 1056.00000

     negative rho (up, down):  7.911E-04 0.000E+00


     %%%%%%%%%%%%%%%%%%%%%%%%%%%%%%%%%%%%%%%%%%%%%%%%%%%%%%%%%%%%%%%%%%%%%%%%
     %                                                                      %
     % You are using vdW-DF, which was implemented by the Thonhauser group. %
     % Please cite the following two papers that made this development      %
     % possible and the two reviews that describe the various versions:     %
     %                                                                      %
     %   T. Thonhauser et al., PRL 115, 136402 (2015).                      %
     %   T. Thonhauser et al., PRB 76, 125112 (2007).                       %
     %   K. Berland et al., Rep. Prog. Phys. 78, 066501 (2015).             %
     %   D.C. Langreth et al., J. Phys.: Condens. Matter 21, 084203 (2009). %
     %                                                                      %
     %                                                                      %
     % If you are calculating the stress with vdW-DF, please also cite:     %
     %                                                                      %
     %   R. Sabatini et al., J. Phys.: Condens. Matter 24, 424209 (2012).   %
     %                                                                      %
     %%%%%%%%%%%%%%%%%%%%%%%%%%%%%%%%%%%%%%%%%%%%%%%%%%%%%%%%%%%%%%%%%%%%%%%%


     Starting wfcs are  732 randomized atomic wfcs

     total cpu time spent up to now is       88.5 secs

     Self-consistent Calculation

     iteration #  1     ecut=    50.00 Ry     beta= 0.30
     Davidson diagonalization with overlap
     ethr =  1.00E-02,  avg # of iterations =  5.6

     negative rho (up, down):  4.865E-04 0.000E+00

     total cpu time spent up to now is     1194.9 secs

     total energy              =  -18974.64584545 Ry
     Harris-Foulkes estimate   =  -22006.79173492 Ry
     estimated scf accuracy    <    5993.26828865 Ry

     iteration #  2     ecut=    50.00 Ry     beta= 0.30
     Davidson diagonalization with overlap
     c_bands:  1 eigenvalues not converged
     ethr =  1.00E-02,  avg # of iterations = 19.1

     negative rho (up, down):  5.247E-04 0.000E+00

     total cpu time spent up to now is     3759.3 secs

     total energy              =  -19241.66529764 Ry
     Harris-Foulkes estimate   =  -38887.67135411 Ry
     estimated scf accuracy    <  281855.45359985 Ry

     iteration #  3     ecut=    50.00 Ry     beta= 0.30
     Davidson diagonalization with overlap
     ethr =  1.00E-02,  avg # of iterations =  7.0

     negative rho (up, down):  6.050E-04 0.000E+00

     total cpu time spent up to now is     5097.1 secs

     total energy              =  -21739.41741744 Ry
     Harris-Foulkes estimate   =  -23393.82621947 Ry
     estimated scf accuracy    <   42871.11431497 Ry

     iteration #  4     ecut=    50.00 Ry     beta= 0.30
     Davidson diagonalization with overlap
     ethr =  1.00E-02,  avg # of iterations =  7.0

     negative rho (up, down):  8.197E-04 0.000E+00

     total cpu time spent up to now is     6148.7 secs

     total energy              =  -21740.10350810 Ry
     Harris-Foulkes estimate   =  -22121.06801496 Ry
     estimated scf accuracy    <   10364.48461353 Ry

     iteration #  5     ecut=    50.00 Ry     beta= 0.30
     Davidson diagonalization with overlap
     ethr =  1.00E-02,  avg # of iterations =  6.0

     negative rho (up, down):  6.061E-05 0.000E+00

     total cpu time spent up to now is     7348.5 secs

     total energy              =  -21702.07486953 Ry
     Harris-Foulkes estimate   =  -22159.52673187 Ry
     estimated scf accuracy    <    9427.56407376 Ry

     iteration #  6     ecut=    50.00 Ry     beta= 0.30
     Davidson diagonalization with overlap
     ethr =  1.00E-02,  avg # of iterations =  5.6

     negative rho (up, down):  8.015E-05 0.000E+00

     total cpu time spent up to now is     8244.2 secs

     total energy              =  -21870.94339194 Ry
     Harris-Foulkes estimate   =  -21977.33327984 Ry
     estimated scf accuracy    <    1059.69518452 Ry

     iteration #  7     ecut=    50.00 Ry     beta= 0.30
     Davidson diagonalization with overlap
     ethr =  1.00E-02,  avg # of iterations =  3.3

     negative rho (up, down):  1.395E-04 0.000E+00

     total cpu time spent up to now is     8577.5 secs

     total energy              =  -21913.78619703 Ry
     Harris-Foulkes estimate   =  -21941.11639931 Ry
     estimated scf accuracy    <    1020.71162168 Ry

     iteration #  8     ecut=    50.00 Ry     beta= 0.30
     Davidson diagonalization with overlap
     ethr =  1.00E-02,  avg # of iterations =  1.8

     negative rho (up, down):  3.182E-04 0.000E+00

     total cpu time spent up to now is     8809.1 secs

     total energy              =  -21911.26005057 Ry
     Harris-Foulkes estimate   =  -21926.70413848 Ry
     estimated scf accuracy    <     124.30412263 Ry

     iteration #  9     ecut=    50.00 Ry     beta= 0.30
     Davidson diagonalization with overlap
     ethr =  1.00E-02,  avg # of iterations =  3.0

     negative rho (up, down):  4.513E-04 0.000E+00

     total cpu time spent up to now is     9083.9 secs

     total energy              =  -21912.48301222 Ry
     Harris-Foulkes estimate   =  -21917.36080727 Ry
     estimated scf accuracy    <     116.08711111 Ry

     iteration # 10     ecut=    50.00 Ry     beta= 0.30
     Davidson diagonalization with overlap
     ethr =  1.00E-02,  avg # of iterations =  1.0

     negative rho (up, down):  2.638E-02 0.000E+00

     total cpu time spent up to now is     9293.1 secs

     total energy              =  -21896.30257105 Ry
     Harris-Foulkes estimate   =  -21913.22806152 Ry
     estimated scf accuracy    <      70.56683082 Ry

     iteration # 11     ecut=    50.00 Ry     beta= 0.30
     Davidson diagonalization with overlap
     ethr =  6.68E-03,  avg # of iterations =  5.4

     total cpu time spent up to now is     9827.5 secs

     total energy              =  -21880.90270517 Ry
     Harris-Foulkes estimate   =  -21925.95085981 Ry
     estimated scf accuracy    <    1432.92197024 Ry

     iteration # 12     ecut=    50.00 Ry     beta= 0.30
     Davidson diagonalization with overlap
     ethr =  6.68E-03,  avg # of iterations =  3.3

     total cpu time spent up to now is    10129.8 secs

     total energy              =  -21902.44076609 Ry
     Harris-Foulkes estimate   =  -21906.69930617 Ry
     estimated scf accuracy    <      46.09469825 Ry

     iteration # 13     ecut=    50.00 Ry     beta= 0.30
     Davidson diagonalization with overlap
     ethr =  4.37E-03,  avg # of iterations =  2.3

     total cpu time spent up to now is    10382.0 secs

     total energy              =  -21903.95312824 Ry
     Harris-Foulkes estimate   =  -21904.43374963 Ry
     estimated scf accuracy    <      13.82355082 Ry

     iteration # 14     ecut=    50.00 Ry     beta= 0.30
     Davidson diagonalization with overlap
     ethr =  1.31E-03,  avg # of iterations =  3.4

     total cpu time spent up to now is    10670.7 secs

     total energy              =  -21904.06405244 Ry
     Harris-Foulkes estimate   =  -21904.47155371 Ry
     estimated scf accuracy    <       8.19285775 Ry

     iteration # 15     ecut=    50.00 Ry     beta= 0.30
     Davidson diagonalization with overlap
     ethr =  7.76E-04,  avg # of iterations =  5.6

     total cpu time spent up to now is    11031.2 secs

     total energy              =  -21904.02118746 Ry
     Harris-Foulkes estimate   =  -21904.21388078 Ry
     estimated scf accuracy    <       5.13300876 Ry

     iteration # 16     ecut=    50.00 Ry     beta= 0.30
     Davidson diagonalization with overlap
     ethr =  4.86E-04,  avg # of iterations =  2.1

     total cpu time spent up to now is    11272.3 secs

     total energy              =  -21903.92643978 Ry
     Harris-Foulkes estimate   =  -21904.10599051 Ry
     estimated scf accuracy    <       4.96264281 Ry

     iteration # 17     ecut=    50.00 Ry     beta= 0.30
     Davidson diagonalization with overlap
     ethr =  4.70E-04,  avg # of iterations =  1.5

     total cpu time spent up to now is    11485.0 secs

     total energy              =  -21903.89275014 Ry
     Harris-Foulkes estimate   =  -21903.95810413 Ry
     estimated scf accuracy    <       2.47445756 Ry

     iteration # 18     ecut=    50.00 Ry     beta= 0.30
     Davidson diagonalization with overlap
     ethr =  2.34E-04,  avg # of iterations =  5.9

     total cpu time spent up to now is    11841.5 secs

     total energy              =  -21903.84004797 Ry
     Harris-Foulkes estimate   =  -21903.90143339 Ry
     estimated scf accuracy    <       1.76480224 Ry

     iteration # 19     ecut=    50.00 Ry     beta= 0.30
     Davidson diagonalization with overlap
     ethr =  1.67E-04,  avg # of iterations =  5.9

     total cpu time spent up to now is    12201.7 secs

     total energy              =  -21903.82930832 Ry
     Harris-Foulkes estimate   =  -21903.84724141 Ry
     estimated scf accuracy    <       0.81449286 Ry

     iteration # 20     ecut=    50.00 Ry     beta= 0.30
     Davidson diagonalization with overlap
     ethr =  7.71E-05,  avg # of iterations =  4.1

     negative rho (up, down):  1.955E-06 0.000E+00

     total cpu time spent up to now is    12498.1 secs

     total energy              =  -21903.73034433 Ry
     Harris-Foulkes estimate   =  -21903.83110262 Ry
     estimated scf accuracy    <       0.89477102 Ry

     iteration # 21     ecut=    50.00 Ry     beta= 0.30
     Davidson diagonalization with overlap
     ethr =  7.71E-05,  avg # of iterations =  7.4

     negative rho (up, down):  1.550E-05 0.000E+00

     total cpu time spent up to now is    12957.2 secs

     total energy              =  -21903.76124704 Ry
     Harris-Foulkes estimate   =  -21903.77580063 Ry
     estimated scf accuracy    <       0.20247720 Ry

     iteration # 22     ecut=    50.00 Ry     beta= 0.30
     Davidson diagonalization with overlap
     ethr =  1.92E-05,  avg # of iterations =  3.7

     negative rho (up, down):  2.242E-04 0.000E+00

     total cpu time spent up to now is    13242.8 secs

     total energy              =  -21903.76702073 Ry
     Harris-Foulkes estimate   =  -21903.76854661 Ry
     estimated scf accuracy    <       0.00827108 Ry

     iteration # 23     ecut=    50.00 Ry     beta= 0.30
     Davidson diagonalization with overlap
     ethr =  7.83E-07,  avg # of iterations =  7.7

     negative rho (up, down):  3.884E-04 0.000E+00

     total cpu time spent up to now is    13748.3 secs

     total energy              =  -21903.76773711 Ry
     Harris-Foulkes estimate   =  -21903.76825034 Ry
     estimated scf accuracy    <       0.00383691 Ry

     iteration # 24     ecut=    50.00 Ry     beta= 0.30
     Davidson diagonalization with overlap
     ethr =  3.63E-07,  avg # of iterations =  3.3

     negative rho (up, down):  6.624E-04 0.000E+00

     total cpu time spent up to now is    14026.4 secs

     total energy              =  -21903.76815272 Ry
     Harris-Foulkes estimate   =  -21903.76822160 Ry
     estimated scf accuracy    <       0.00147659 Ry

     iteration # 25     ecut=    50.00 Ry     beta= 0.30
     Davidson diagonalization with overlap
     ethr =  1.40E-07,  avg # of iterations =  5.4

     negative rho (up, down):  9.896E-04 0.000E+00

     total cpu time spent up to now is    14384.0 secs

     total energy              =  -21903.76831927 Ry
     Harris-Foulkes estimate   =  -21903.76828283 Ry
     estimated scf accuracy    <       0.00027268 Ry

     iteration # 26     ecut=    50.00 Ry     beta= 0.30
     Davidson diagonalization with overlap
     ethr =  2.58E-08,  avg # of iterations =  5.9

     negative rho (up, down):  1.309E-03 0.000E+00

     total cpu time spent up to now is    14749.4 secs

     total energy              =  -21903.76836023 Ry
     Harris-Foulkes estimate   =  -21903.76836606 Ry
     estimated scf accuracy    <       0.00044395 Ry

     iteration # 27     ecut=    50.00 Ry     beta= 0.30
     Davidson diagonalization with overlap
     ethr =  2.58E-08,  avg # of iterations =  3.8

     negative rho (up, down):  1.829E-03 0.000E+00

     total cpu time spent up to now is    15040.7 secs

     total energy              =  -21903.76840017 Ry
     Harris-Foulkes estimate   =  -21903.76838961 Ry
     estimated scf accuracy    <       0.00008016 Ry

     iteration # 28     ecut=    50.00 Ry     beta= 0.30
     Davidson diagonalization with overlap
     ethr =  7.59E-09,  avg # of iterations =  6.3

     negative rho (up, down):  2.170E-03 0.000E+00

     total cpu time spent up to now is    15412.1 secs

     total energy              =  -21903.76840461 Ry
     Harris-Foulkes estimate   =  -21903.76840699 Ry
     estimated scf accuracy    <       0.00001979 Ry

     iteration # 29     ecut=    50.00 Ry     beta= 0.30
     Davidson diagonalization with overlap
     ethr =  1.87E-09,  avg # of iterations =  2.0

     negative rho (up, down):  2.168E-03 0.000E+00

     total cpu time spent up to now is    15651.2 secs

     total energy              =  -21903.76840493 Ry
     Harris-Foulkes estimate   =  -21903.76840874 Ry
     estimated scf accuracy    <       0.00005065 Ry

     iteration # 30     ecut=    50.00 Ry     beta= 0.30
     Davidson diagonalization with overlap
     ethr =  1.87E-09,  avg # of iterations =  1.3

     negative rho (up, down):  2.305E-03 0.000E+00

     total cpu time spent up to now is    15867.3 secs

     total energy              =  -21903.76840634 Ry
     Harris-Foulkes estimate   =  -21903.76840790 Ry
     estimated scf accuracy    <       0.00002090 Ry

     iteration # 31     ecut=    50.00 Ry     beta= 0.30
     Davidson diagonalization with overlap
     ethr =  1.87E-09,  avg # of iterations =  1.0

     negative rho (up, down):  2.351E-03 0.000E+00

     total cpu time spent up to now is    16075.5 secs

     total energy              =  -21903.76840661 Ry
     Harris-Foulkes estimate   =  -21903.76840712 Ry
     estimated scf accuracy    <       0.00000165 Ry

     iteration # 32     ecut=    50.00 Ry     beta= 0.30
     Davidson diagonalization with overlap
     ethr =  1.57E-10,  avg # of iterations =  2.0

     negative rho (up, down):  2.376E-03 0.000E+00

     total cpu time spent up to now is    16318.8 secs

     total energy              =  -21903.76840647 Ry
     Harris-Foulkes estimate   =  -21903.76840683 Ry
     estimated scf accuracy    <       0.00000168 Ry

     iteration # 33     ecut=    50.00 Ry     beta= 0.30
     Davidson diagonalization with overlap
     ethr =  1.57E-10,  avg # of iterations =  1.7

     negative rho (up, down):  2.404E-03 0.000E+00

     total cpu time spent up to now is    16549.0 secs

     total energy              =  -21903.76840635 Ry
     Harris-Foulkes estimate   =  -21903.76840663 Ry
     estimated scf accuracy    <       0.00000123 Ry

     iteration # 34     ecut=    50.00 Ry     beta= 0.30
     Davidson diagonalization with overlap
     ethr =  1.16E-10,  avg # of iterations =  2.0

     negative rho (up, down):  2.426E-03 0.000E+00

     total cpu time spent up to now is    16787.7 secs

     total energy              =  -21903.76840619 Ry
     Harris-Foulkes estimate   =  -21903.76840640 Ry
     estimated scf accuracy    <       0.00000008 Ry

     iteration # 35     ecut=    50.00 Ry     beta= 0.30
     Davidson diagonalization with overlap
     ethr =  7.36E-12,  avg # of iterations =  2.0

     negative rho (up, down):  2.433E-03 0.000E+00

     total cpu time spent up to now is    17043.0 secs

     total energy              =  -21903.76840614 Ry
     Harris-Foulkes estimate   =  -21903.76840621 Ry
     estimated scf accuracy    <       0.00000006 Ry

     iteration # 36     ecut=    50.00 Ry     beta= 0.30
     Davidson diagonalization with overlap
     ethr =  5.32E-12,  avg # of iterations =  2.0

     negative rho (up, down):  2.443E-03 0.000E+00

     total cpu time spent up to now is    17272.9 secs

     total energy              =  -21903.76840604 Ry
     Harris-Foulkes estimate   =  -21903.76840614 Ry
     estimated scf accuracy    <       0.00000004 Ry

     iteration # 37     ecut=    50.00 Ry     beta= 0.30
     Davidson diagonalization with overlap
     ethr =  3.78E-12,  avg # of iterations =  2.0

     negative rho (up, down):  2.459E-03 0.000E+00

     total cpu time spent up to now is    17500.8 secs

     End of self-consistent calculation

          k = 0.0000 0.0000 0.0000 ( 61453 PWs)   bands (ev):

  -107.8312-107.8278-107.8244-107.8244-107.8244-107.8239-107.8239-107.8235
  -107.8224-107.8209-107.8209-107.8207-107.8207-107.8200-107.8200-107.8196
  -107.8193-107.8192-107.8152-107.8152-107.8151-107.8140-107.8140-107.8137
  -107.8133-107.8116-107.8116-107.8100-107.8062-107.8052-107.8052-107.8051
  -107.8051-107.8042-107.8028-107.8021-107.5995-107.5953-107.5953-107.5949
  -107.5934-107.5934-107.5924-107.5904-107.5903-107.5711-107.5661-107.5661
  -107.5661-107.5658-107.5658-107.5658-107.5634-107.5634 -65.2852 -65.2727
   -65.2717 -65.2717 -65.2712 -65.2712 -65.2705 -65.2644 -65.2642 -65.2642
   -65.2636 -65.2636 -65.2631 -65.2631 -65.2629 -65.2600 -65.2599 -65.2599
   -65.2595 -65.2578 -65.2526 -65.2526 -65.2521 -65.2512 -65.2509 -65.2509
   -65.2494 -65.2493 -65.2493 -65.2489 -65.2489 -65.2481 -65.2481 -65.2481
   -65.2457 -65.2457 -65.2455 -65.2451 -65.2400 -65.2400 -65.2398 -65.2392
   -65.2391 -65.2391 -65.2384 -65.2384 -65.2348 -65.2348 -65.2341 -65.2320
   -65.2319 -65.2315 -65.2315 -65.2315 -65.2315 -65.2311 -65.2283 -65.2246
   -65.2246 -65.2236 -65.2236 -65.2233 -65.2230 -65.2230 -65.2227 -65.2217
   -65.2217 -65.2217 -65.2206 -65.2200 -65.2200 -65.2198 -65.2198 -65.2171
   -65.2171 -65.2137 -65.2133 -65.2133 -65.2133 -65.2132 -65.2132 -65.2127
   -65.2127 -65.2123 -65.2119 -65.2118 -65.2118 -65.2094 -65.2070 -65.2070
   -65.2066 -65.2061 -65.2061 -65.2061 -65.2060 -65.2060 -65.2003 -65.2003
   -65.1988 -65.1988 -65.1987 -65.1983 -65.1980 -65.1980 -65.1944 -65.1944
   -65.1876 -65.1876 -65.0515 -65.0514 -65.0514 -65.0506 -65.0506 -65.0498
   -65.0479 -65.0474 -65.0474 -65.0461 -65.0255 -65.0253 -65.0253 -65.0253
   -65.0251 -65.0251 -65.0228 -65.0228 -65.0225 -65.0222 -65.0167 -65.0158
   -65.0158 -65.0144 -65.0144 -65.0142 -65.0029 -65.0029 -64.9900 -64.9900
   -64.9900 -64.9900 -64.9899 -64.9897 -64.9778 -64.9778 -64.9761 -64.9724
   -64.9724 -64.9720 -64.9706 -64.9706 -64.9690 -64.9671 -64.9670 -64.9431
   -64.9384 -64.9384 -64.9384 -64.9381 -64.9381 -64.9381 -64.9358 -64.9358
   -12.6858  -9.9393  -9.9391  -6.3462  -6.3457  -4.4213  -4.0959  -3.4766
    -2.8232  -2.5285  -2.4336  -1.7826  -1.7825  -1.4090  -1.1311  -1.1303
    -1.1303  -1.1302  -1.1302  -1.1302  -0.7405  -0.7266  -0.7266  -0.7263
    -0.7263  -0.7263  -0.6519  -0.4474  -0.2293  -0.2272  -0.2272  -0.2263
    -0.2263  -0.2262  -0.2112   0.1510   0.1513   0.2229   0.2229   0.2247
     0.2268   0.2268   0.2285   0.5728   0.5728   0.5747   0.5750   0.5750
     0.5770   0.7001   0.7001   0.7005   0.7007   0.7007   0.7013   0.7496
     0.7496   0.7501   0.7501   0.7501   0.7507   0.7787   0.7787   0.7927
     0.7927   0.8031   0.8032   0.8989   0.8989   0.9074   0.9074   0.9263
     0.9263   0.9269   0.9277   0.9277   0.9286   0.9377   0.9377   0.9387
     0.9387   0.9861   0.9861   1.0308   1.0308   1.1354   1.1354   1.1388
     1.1388   1.1404   1.1406   1.1406   1.1419   1.1754   1.1754   1.3731
     1.3731   1.3769   1.3769   1.3769   1.3785   1.5078   1.5078   1.5161
     1.5161   1.5273   1.5273   1.5302   1.5302   1.5306   1.5314   1.5701
     1.5731   1.5732   1.5891   1.6413   1.6413   1.6437   1.6437   1.6440
     1.6443   1.6564   1.6565   1.6828   1.6828   1.7131   1.7194   1.7194
     1.7243   1.7243   1.7297   1.7297   1.7299   1.7308   1.7692   1.7692
     1.7791   1.7791   1.7816   1.7817   1.7817   1.7822   1.8014   1.8015
     1.8015   1.8021   1.8022   1.8022   1.8081   1.8081   1.8236   1.8868
     1.8868   1.9203   1.9203   1.9299   1.9301   1.9301   1.9325   1.9441
     1.9453   1.9471   1.9471   1.9697   1.9697   1.9789   1.9791   2.0022
     2.0022   2.0030   2.0030   2.0032   2.0037   2.0041   2.0041   2.0668
     2.0668   2.1937   2.1937   2.1938   2.1973   2.2461   2.2461   2.2612
     2.2613   2.2613   2.2618   2.2619   2.2619   2.3232   2.3232   2.3248
     2.3264   2.3382   2.3382   2.3419   2.3419   2.3641   2.3641   2.3743
     2.3744   2.4083   2.4302   2.4302   2.4591   2.4591   2.4642   2.4642
     2.4650   2.4683   2.4830   2.4830   2.4918   2.4920   2.4920   2.4922
     2.4922   2.4923   2.4941   2.4941   2.4980   2.4980   2.5664   2.5664
     2.6314   2.6315   2.6315   2.6318   2.6319   2.6319   2.6876   2.6883
     2.6883   2.6900   2.6910   2.6911   2.6911   2.6915   2.6916   2.6916
     2.6970   2.6970   2.7537   2.7537   2.7595   2.7595   2.7596   2.7601
     2.7602   2.7602   2.7711   2.7712   2.7712   2.7715   2.7716   2.7716
     2.7951   2.7952   2.7952   2.7956   2.7956   2.7956   2.8236   2.8236
     2.8373   2.8373   2.8619   2.8629   2.8629   2.8631   2.8631   2.8635
     2.8690   2.8691   2.8901   2.8903   2.8903   2.8906   2.8906   2.8908
     2.9181   2.9181   2.9215   2.9215   2.9231   2.9231   2.9430   2.9431
     2.9568   2.9569   2.9569   2.9575   2.9575   2.9576   2.9823   2.9823
     2.9825   2.9852   2.9852   2.9889   3.0168   3.0168   3.0349   3.0349
     3.0349   3.0357   3.0358   3.0358   3.8616   3.9627   3.9627   3.9645
     3.9853   4.0003   4.0003   4.4566   5.3875   5.3875   5.3962   5.4187
     5.4433   5.4433   7.0056   7.0057   7.0462   7.1637   7.2568   7.2568
     7.2837   7.4589   7.4590   7.8291   7.8291   7.8291   7.8292   7.8451
     7.8451   8.1753   8.2217   8.2217   8.2425   8.2425   8.4815   8.6367
     8.6383   8.7882   8.8780   8.8780   8.8938   8.8946   9.0114   9.0325
     9.0325   9.2594   9.4818   9.5142   9.5142   9.5203   9.5203   9.8162
     9.8163   9.8725   9.8972   9.8993  10.5590  10.5852  10.6667  10.6667
    10.6901  10.6901  10.8439  10.8439  10.8872  10.8872  10.9318  11.0974
    11.1029  11.1029  11.2576  11.3166  11.3166  11.3389  11.3389  11.3572
    11.4729  11.6646  11.6646  11.7996  11.8238  11.8238  11.8661  11.8661
    11.9030  11.9060  11.9060  11.9486  11.9486  12.0302  12.1192  12.2262
    12.2262  12.2503  12.3145  12.3426  12.3426  12.4651  12.4651  12.7250
    12.8932  12.8938  12.8940  13.0028  13.0029  13.0100  13.0257  13.0392
    13.1096  13.1222

          k = 0.0000 0.2887 0.0000 ( 61417 PWs)   bands (ev):

  -107.8308-107.8279-107.8259-107.8250-107.8245-107.8236-107.8230-107.8226
  -107.8221-107.8214-107.8213-107.8206-107.8205-107.8203-107.8200-107.8192
  -107.8192-107.8190-107.8163-107.8154-107.8151-107.8138-107.8137-107.8134
  -107.8130-107.8117-107.8117-107.8096-107.8070-107.8058-107.8057-107.8046
  -107.8044-107.8038-107.8030-107.8022-107.5991-107.5963-107.5954-107.5943
  -107.5937-107.5932-107.5919-107.5904-107.5904-107.5706-107.5677-107.5666
  -107.5666-107.5651-107.5651-107.5647-107.5636-107.5636 -65.2838 -65.2748
   -65.2741 -65.2730 -65.2720 -65.2718 -65.2712 -65.2709 -65.2681 -65.2680
   -65.2671 -65.2670 -65.2654 -65.2652 -65.2607 -65.2595 -65.2593 -65.2574
   -65.2567 -65.2558 -65.2555 -65.2554 -65.2552 -65.2548 -65.2530 -65.2529
   -65.2525 -65.2520 -65.2482 -65.2481 -65.2454 -65.2450 -65.2449 -65.2438
   -65.2436 -65.2430 -65.2424 -65.2422 -65.2402 -65.2401 -65.2378 -65.2378
   -65.2347 -65.2344 -65.2341 -65.2338 -65.2330 -65.2329 -65.2319 -65.2312
   -65.2306 -65.2297 -65.2292 -65.2283 -65.2280 -65.2277 -65.2269 -65.2264
   -65.2261 -65.2246 -65.2242 -65.2241 -65.2238 -65.2238 -65.2236 -65.2213
   -65.2210 -65.2191 -65.2190 -65.2183 -65.2182 -65.2169 -65.2166 -65.2165
   -65.2159 -65.2156 -65.2155 -65.2151 -65.2148 -65.2148 -65.2147 -65.2133
   -65.2131 -65.2116 -65.2114 -65.2106 -65.2101 -65.2095 -65.2095 -65.2091
   -65.2090 -65.2087 -65.2074 -65.2057 -65.2056 -65.2038 -65.2024 -65.2023
   -65.2023 -65.2013 -65.2010 -65.1987 -65.1987 -65.1980 -65.1955 -65.1948
   -65.1917 -65.1886 -65.0622 -65.0569 -65.0566 -65.0552 -65.0548 -65.0435
   -65.0432 -65.0378 -65.0375 -65.0368 -65.0345 -65.0312 -65.0311 -65.0301
   -65.0300 -65.0198 -65.0192 -65.0182 -65.0181 -65.0180 -65.0150 -65.0149
   -65.0124 -65.0123 -65.0111 -65.0095 -65.0071 -65.0039 -64.9940 -64.9939
   -64.9929 -64.9899 -64.9898 -64.9859 -64.9820 -64.9788 -64.9758 -64.9733
   -64.9725 -64.9715 -64.9708 -64.9704 -64.9687 -64.9671 -64.9671 -64.9427
   -64.9399 -64.9389 -64.9388 -64.9375 -64.9375 -64.9371 -64.9361 -64.9361
   -12.6850  -9.9428  -9.9398  -6.3490  -6.3416  -4.3949  -3.8825  -3.2676
    -2.7958  -2.4373  -2.3282  -2.2796  -1.8330  -1.7900  -1.7303  -1.5686
    -1.5682  -1.2235  -1.0865  -1.0847  -0.9363  -0.6155  -0.5121  -0.5117
    -0.4226  -0.4164  -0.3219  -0.3008  -0.2264  -0.2259  -0.0911  -0.0587
    -0.0532   0.0445   0.0481   0.0488   0.1118   0.1528   0.2237   0.2290
     0.2546   0.3204   0.3205   0.5034   0.5095   0.5401   0.5401   0.5644
     0.5761   0.5761   0.5991   0.5994   0.6448   0.6472   0.6487   0.6494
     0.6613   0.6615   0.7021   0.7021   0.7384   0.7384   0.7673   0.7674
     0.7737   0.8183   0.8190   0.8332   0.8332   0.8549   0.8552   0.8677
     0.8678   0.9000   0.9003   0.9428   1.0110   1.0111   1.0160   1.0410
     1.0410   1.0544   1.0551   1.0898   1.0901   1.1257   1.1282   1.1282
     1.1920   1.1920   1.2148   1.2174   1.2381   1.2383   1.2832   1.2837
     1.2996   1.3205   1.3249   1.3257   1.3534   1.3958   1.3964   1.4143
     1.4145   1.4225   1.4557   1.4596   1.4717   1.4946   1.4948   1.5030
     1.5339   1.5343   1.5626   1.5995   1.6144   1.6238   1.6239   1.6358
     1.6364   1.6372   1.6701   1.6750   1.6816   1.6933   1.6935   1.7091
     1.7126   1.7131   1.7312   1.7350   1.7424   1.7529   1.7649   1.7707
     1.7713   1.7786   1.7810   1.7856   1.7886   1.8049   1.8063   1.8102
     1.8102   1.8141   1.8339   1.8383   1.8461   1.8523   1.8587   1.8704
     1.8718   1.8759   1.8770   1.9126   1.9136   1.9227   1.9237   1.9294
     1.9359   1.9369   1.9496   1.9533   1.9539   1.9554   1.9676   1.9815
     1.9867   2.0043   2.0261   2.0283   2.0397   2.0400   2.0520   2.0557
     2.0562   2.0651   2.0691   2.0938   2.0939   2.1077   2.1204   2.1411
     2.1523   2.1584   2.1813   2.1865   2.1919   2.1921   2.2212   2.2244
     2.2539   2.2708   2.2969   2.2988   2.3055   2.3072   2.3183   2.3191
     2.3471   2.3504   2.3599   2.3606   2.3648   2.3665   2.3982   2.3984
     2.4279   2.4330   2.4369   2.4378   2.4455   2.4708   2.4744   2.4767
     2.4794   2.4829   2.5121   2.5230   2.5272   2.5333   2.5339   2.5511
     2.5554   2.5557   2.5730   2.5762   2.5766   2.5766   2.5864   2.5900
     2.6124   2.6218   2.6612   2.6659   2.6704   2.6982   2.6997   2.7085
     2.7112   2.7119   2.7126   2.7164   2.7351   2.7356   2.7371   2.7499
     2.7532   2.7544   2.7582   2.7662   2.7905   2.8042   2.8043   2.8079
     2.8178   2.8184   2.8378   2.8391   2.8457   2.8472   2.8921   2.8923
     2.8923   2.8998   2.8999   2.9055   2.9153   2.9165   2.9224   2.9263
     2.9273   2.9273   2.9339   2.9341   2.9372   2.9428   2.9510   2.9515
     2.9692   2.9814   2.9815   2.9822   2.9841   2.9889   2.9904   2.9907
     3.0127   3.0214   3.0308   3.0334   3.0346   3.0380   3.0511   3.0519
     3.1198   3.1416   3.1844   3.2739   3.2981   3.2984   3.3768   3.4586
     3.4587   3.7120   3.7626   3.7645   3.7686   3.7861   4.0763   4.2780
     4.4600   4.7374   4.7393   4.9569   5.0423   5.0538   5.0883   5.8256
     5.8258   6.0425   6.1840   6.2022   6.2229   6.2236   6.4667   6.7036
     6.7663   6.8914   6.9050   7.2266   7.2837   7.3928   7.4728   7.7234
     7.7569   7.7679   7.9448   8.0136   8.2166   8.2251   8.2760   8.3801
     8.3886   8.6927   8.6949   8.7617   8.8385   8.9407   9.2424   9.2448
     9.3155   9.4030   9.5701   9.6385   9.7730   9.8236   9.9181   9.9490
     9.9896   9.9953  10.0406  10.1134  10.2590  10.3933  10.3955  10.4641
    10.5142  10.5462  10.6080  10.6435  10.7164  10.7640  10.7668  10.8423
    10.9340  10.9448  10.9573  11.0371  11.0953  11.2309  11.4344  11.4504
    11.4808  11.5132  11.5624  11.5826  11.6753  11.7686  11.9173  11.9778
    12.0312  12.1634  12.2224  12.3049  12.3343  12.4174  12.4763  12.5058
    12.5372  12.5728  12.6297  12.6825  12.8248  12.8293  12.8462  12.8733
    12.9495  13.0099  13.1160  13.1331  13.1848  13.2271  13.2369  13.3489
    13.3939  13.4581

          k = 0.0000-0.5774 0.0000 ( 61408 PWs)   bands (ev):

  -107.8300-107.8284-107.8266-107.8253-107.8245-107.8233-107.8226-107.8220
  -107.8218-107.8215-107.8212-107.8212-107.8209-107.8203-107.8196-107.8194
  -107.8190-107.8182-107.8175-107.8155-107.8153-107.8134-107.8134-107.8133
  -107.8129-107.8119-107.8117-107.8088-107.8080-107.8060-107.8059-107.8043
  -107.8036-107.8036-107.8035-107.8022-107.5983-107.5973-107.5955-107.5944
  -107.5936-107.5930-107.5917-107.5905-107.5904-107.5695-107.5693-107.5668
  -107.5668-107.5644-107.5644-107.5642-107.5641-107.5641 -65.2802 -65.2795
   -65.2772 -65.2758 -65.2722 -65.2720 -65.2709 -65.2707 -65.2699 -65.2697
   -65.2691 -65.2689 -65.2687 -65.2681 -65.2648 -65.2585 -65.2580 -65.2579
   -65.2575 -65.2573 -65.2569 -65.2568 -65.2562 -65.2559 -65.2537 -65.2535
   -65.2530 -65.2526 -65.2463 -65.2459 -65.2451 -65.2448 -65.2444 -65.2439
   -65.2428 -65.2392 -65.2391 -65.2368 -65.2356 -65.2355 -65.2354 -65.2351
   -65.2348 -65.2338 -65.2325 -65.2324 -65.2319 -65.2313 -65.2313 -65.2309
   -65.2282 -65.2282 -65.2281 -65.2276 -65.2274 -65.2271 -65.2265 -65.2254
   -65.2229 -65.2223 -65.2220 -65.2216 -65.2215 -65.2211 -65.2209 -65.2208
   -65.2208 -65.2206 -65.2204 -65.2195 -65.2178 -65.2177 -65.2173 -65.2168
   -65.2167 -65.2162 -65.2147 -65.2143 -65.2137 -65.2135 -65.2134 -65.2130
   -65.2122 -65.2121 -65.2116 -65.2109 -65.2104 -65.2102 -65.2101 -65.2097
   -65.2097 -65.2091 -65.2090 -65.2064 -65.2062 -65.2060 -65.2059 -65.2049
   -65.2037 -65.2025 -65.2021 -65.2021 -65.2001 -65.1999 -65.1986 -65.1981
   -65.1915 -65.1909 -65.0663 -65.0592 -65.0589 -65.0578 -65.0574 -65.0410
   -65.0399 -65.0395 -65.0332 -65.0331 -65.0331 -65.0329 -65.0282 -65.0277
   -65.0269 -65.0266 -65.0194 -65.0193 -65.0189 -65.0161 -65.0152 -65.0145
   -65.0144 -65.0078 -65.0062 -65.0021 -65.0020 -65.0020 -65.0018 -64.9940
   -64.9937 -64.9936 -64.9909 -64.9908 -64.9819 -64.9817 -64.9751 -64.9742
   -64.9725 -64.9714 -64.9708 -64.9703 -64.9686 -64.9672 -64.9671 -64.9416
   -64.9414 -64.9391 -64.9391 -64.9368 -64.9368 -64.9367 -64.9365 -64.9365
   -12.6842  -9.9464  -9.9406  -6.3522  -6.3369  -4.3678  -3.2570  -3.2568
    -2.7681  -2.6601  -2.6593  -2.4410  -1.8881  -1.7979  -1.7575  -1.7414
    -1.7243  -1.7232  -1.2166  -1.2144  -0.7743  -0.6886  -0.5431  -0.4936
    -0.4578  -0.1115   0.0639   0.0705   0.0724   0.0923   0.0923   0.0925
     0.0927   0.0971   0.1532   0.1798   0.2504   0.2571   0.2608   0.2667
     0.2716   0.2904   0.2905   0.2906   0.2908   0.3459   0.3461   0.3464
     0.3464   0.4736   0.5101   0.5102   0.5110   0.5111   0.5479   0.5914
     0.6885   0.6886   0.6888   0.6889   0.7014   0.7241   0.7266   0.7412
     0.7412   0.7421   0.7422   0.8623   0.8624   0.8627   0.8628   0.8849
     0.8858   0.9722   0.9841   0.9842   0.9851   0.9852   1.0227   1.0229
     1.0668   1.0669   1.1356   1.1359   1.1367   1.1369   1.1981   1.1983
     1.2282   1.2290   1.2466   1.2470   1.2481   1.2485   1.2672   1.2673
     1.2982   1.3042   1.3527   1.3674   1.3683   1.3953   1.3962   1.4128
     1.4161   1.4245   1.4246   1.4252   1.4252   1.4808   1.4829   1.4853
     1.4858   1.4864   1.4866   1.5362   1.5410   1.5587   1.5603   1.5614
     1.5615   1.5700   1.5708   1.5709   1.6121   1.6292   1.6549   1.6582
     1.6589   1.6666   1.6744   1.7089   1.7093   1.7096   1.7098   1.7098
     1.7182   1.7245   1.7733   1.7739   1.7808   1.7823   1.7938   1.7944
     1.8278   1.8286   1.8289   1.8294   1.8488   1.8527   1.8535   1.8554
     1.8557   1.8789   1.8797   1.8828   1.8833   1.9144   1.9146   1.9365
     1.9465   1.9471   1.9760   1.9946   2.0069   2.0084   2.0147   2.0153
     2.0182   2.0184   2.0240   2.0275   2.0301   2.0355   2.0359   2.0511
     2.0573   2.0611   2.0648   2.0690   2.0691   2.0835   2.0953   2.1414
     2.1492   2.1496   2.1691   2.2309   2.2309   2.2316   2.2321   2.2352
     2.2368   2.2373   2.2455   2.2460   2.2507   2.2645   2.2725   2.2964
     2.3091   2.3098   2.3103   2.3201   2.3309   2.3311   2.3314   2.3324
     2.3324   2.3388   2.3566   2.3570   2.3623   2.3664   2.3670   2.4458
     2.4683   2.4873   2.4876   2.5150   2.5151   2.5158   2.5164   2.5471
     2.5476   2.5521   2.5651   2.5861   2.5875   2.5912   2.5917   2.6022
     2.6135   2.6282   2.6285   2.6287   2.6288   2.6289   2.6418   2.6612
     2.6618   2.6636   2.6672   2.7172   2.7172   2.7184   2.7188   2.7294
     2.7303   2.7536   2.7542   2.7827   2.7833   2.7893   2.7909   2.8157
     2.8158   2.8394   2.8429   2.8484   2.8632   2.9021   2.9039   2.9169
     2.9188   2.9240   2.9246   2.9410   2.9533   2.9534   2.9569   2.9574
     2.9593   2.9609   2.9774   2.9812   2.9813   2.9815   2.9818   2.9990
     2.9994   2.9996   3.0103   3.0132   3.0281   3.0291   3.0466   3.0467
     3.0472   3.0496   3.0552   3.0679   3.0853   3.0982   3.0984   3.0995
     3.0997   3.1985   3.2211   3.7330   3.7548   3.7587   3.7672   4.2640
     4.3099   4.3101   4.3103   4.3105   4.5784   4.5794   4.5802   4.5805
     4.9208   4.9309   4.9536   5.0549   5.0946   5.1303   5.1362   5.1383
     5.1423   5.4224   5.7609   6.0165   6.0373   6.0619   6.0938   6.1168
     6.1201   6.1305   6.1785   6.5705   6.6373   7.1602   7.2550   7.4281
     7.4288   7.4322   7.6172   7.9203   7.9803   8.1677   8.2906   8.4172
     8.5512   8.5561   8.5567   8.5810   8.8965   8.9321   8.9377   9.1909
     9.2027   9.2046   9.2163   9.2449   9.4580   9.6062   9.6535   9.7758
     9.8086   9.8686   9.8855   9.8956   9.9161  10.2749  10.3163  10.3672
    10.4063  10.4339  10.4949  10.5043  10.5270  10.8065  10.8570  11.0213
    11.0775  11.1665  11.2581  11.2753  11.3513  11.3787  11.4433  11.4800
    11.4858  11.5748  11.7171  12.0340  12.1174  12.1373  12.2287  12.2670
    12.2771  12.3110  12.4378  12.5322  12.7554  12.7766  12.8958  12.9597
    12.9790  13.0364  13.0407  13.1024  13.1171  13.2102  13.2249  13.2435
    13.2566  13.2886  13.2971  13.3402  13.4969  13.6157  13.6853  13.6858
    13.7489  13.8403

          k = 0.2500-0.7217 0.0000 ( 61343 PWs)   bands (ev):

  -107.8301-107.8281-107.8269-107.8258-107.8234-107.8233-107.8230-107.8223
  -107.8221-107.8215-107.8212-107.8211-107.8208-107.8200-107.8199-107.8194
  -107.8190-107.8183-107.8170-107.8165-107.8145-107.8136-107.8134-107.8133
  -107.8130-107.8119-107.8117-107.8089-107.8076-107.8070-107.8051-107.8044
  -107.8040-107.8035-107.8034-107.8022-107.5984-107.5971-107.5960-107.5939
  -107.5937-107.5931-107.5917-107.5906-107.5903-107.5698-107.5684-107.5682
  -107.5654-107.5653-107.5644-107.5643-107.5641-107.5638 -65.2811 -65.2768
   -65.2761 -65.2754 -65.2748 -65.2741 -65.2736 -65.2723 -65.2707 -65.2691
   -65.2687 -65.2677 -65.2650 -65.2633 -65.2628 -65.2624 -65.2623 -65.2598
   -65.2574 -65.2562 -65.2561 -65.2560 -65.2556 -65.2543 -65.2539 -65.2531
   -65.2523 -65.2520 -65.2495 -65.2489 -65.2448 -65.2438 -65.2434 -65.2426
   -65.2402 -65.2399 -65.2394 -65.2390 -65.2386 -65.2361 -65.2353 -65.2351
   -65.2343 -65.2336 -65.2330 -65.2326 -65.2317 -65.2294 -65.2290 -65.2288
   -65.2286 -65.2284 -65.2282 -65.2272 -65.2268 -65.2264 -65.2258 -65.2250
   -65.2246 -65.2233 -65.2231 -65.2229 -65.2227 -65.2222 -65.2206 -65.2197
   -65.2194 -65.2192 -65.2188 -65.2186 -65.2179 -65.2178 -65.2174 -65.2171
   -65.2169 -65.2160 -65.2156 -65.2149 -65.2145 -65.2141 -65.2137 -65.2126
   -65.2120 -65.2116 -65.2115 -65.2113 -65.2111 -65.2110 -65.2109 -65.2106
   -65.2090 -65.2085 -65.2082 -65.2065 -65.2061 -65.2055 -65.2052 -65.2052
   -65.2044 -65.2042 -65.2022 -65.2012 -65.2011 -65.2001 -65.1966 -65.1946
   -65.1945 -65.1908 -65.0645 -65.0635 -65.0611 -65.0545 -65.0510 -65.0500
   -65.0388 -65.0387 -65.0359 -65.0313 -65.0295 -65.0293 -65.0282 -65.0278
   -65.0254 -65.0253 -65.0233 -65.0220 -65.0215 -65.0211 -65.0149 -65.0106
   -65.0100 -65.0061 -65.0058 -65.0038 -65.0029 -65.0029 -64.9972 -64.9971
   -64.9964 -64.9963 -64.9897 -64.9852 -64.9851 -64.9811 -64.9752 -64.9740
   -64.9728 -64.9710 -64.9709 -64.9704 -64.9686 -64.9672 -64.9670 -64.9419
   -64.9405 -64.9404 -64.9378 -64.9376 -64.9368 -64.9367 -64.9365 -64.9363
   -12.6842  -9.9449  -9.9420  -6.3484  -6.3408  -4.3680  -3.4625  -2.8585
    -2.7678  -2.6564  -2.6562  -2.4408  -2.0853  -2.0839  -1.9456  -1.8527
    -1.8177  -1.2345  -1.2245  -0.8802  -0.6464  -0.6454  -0.5819  -0.2956
    -0.2947  -0.2546  -0.2288  -0.0544  -0.0543  -0.0446   0.0897   0.1173
     0.1225   0.1358   0.1402   0.1405   0.1573   0.2064   0.2182   0.2183
     0.2358   0.3344   0.3376   0.3405   0.3407   0.4118   0.4182   0.4781
     0.4793   0.4907   0.5018   0.5298   0.5299   0.5324   0.5506   0.5520
     0.6164   0.6170   0.6449   0.6458   0.6760   0.6761   0.7023   0.7109
     0.7113   0.7772   0.7774   0.8056   0.8269   0.8393   0.8397   0.9126
     0.9150   0.9657   0.9852   0.9856   1.0127   1.0131   1.0717   1.0805
     1.0812   1.0969   1.0970   1.1095   1.1491   1.1759   1.1763   1.2192
     1.2198   1.2455   1.2495   1.2510   1.2527   1.2696   1.2697   1.3273
     1.3281   1.3315   1.3321   1.3362   1.3474   1.3654   1.3667   1.3786
     1.3798   1.4064   1.4084   1.4301   1.4305   1.4321   1.4511   1.4772
     1.5175   1.5245   1.5252   1.5258   1.5269   1.5552   1.5733   1.5765
     1.5789   1.6156   1.6166   1.6171   1.6200   1.6267   1.6497   1.6703
     1.6708   1.6861   1.6862   1.7070   1.7138   1.7248   1.7253   1.7326
     1.7338   1.7506   1.7516   1.7685   1.7689   1.7845   1.7920   1.8104
     1.8155   1.8222   1.8368   1.8502   1.8526   1.8535   1.8620   1.8695
     1.8706   1.8803   1.8823   1.8828   1.8966   1.8973   1.8994   1.9001
     1.9223   1.9294   1.9507   1.9525   1.9645   1.9710   1.9772   1.9783
     1.9884   1.9887   1.9892   1.9932   1.9964   1.9977   2.0018   2.0037
     2.0464   2.0527   2.0825   2.0943   2.1316   2.1328   2.1346   2.1392
     2.1457   2.1509   2.1667   2.1668   2.1903   2.2032   2.2066   2.2114
     2.2330   2.2343   2.2698   2.2749   2.2756   2.3029   2.3040   2.3056
     2.3064   2.3081   2.3100   2.3119   2.3158   2.3241   2.3427   2.3444
     2.3885   2.3924   2.3933   2.3953   2.4011   2.4056   2.4130   2.4367
     2.4416   2.4458   2.4599   2.4828   2.4832   2.5031   2.5097   2.5103
     2.5215   2.5248   2.5549   2.5632   2.5677   2.5696   2.5957   2.5970
     2.6183   2.6237   2.6243   2.6427   2.6448   2.6659   2.6673   2.6688
     2.6714   2.6754   2.6864   2.6869   2.6919   2.6988   2.7052   2.7230
     2.7574   2.7619   2.7626   2.7678   2.8133   2.8138   2.8255   2.8290
     2.8573   2.8693   2.8704   2.8765   2.8770   2.8888   2.8929   2.9207
     2.9221   2.9223   2.9312   2.9317   2.9417   2.9443   2.9457   2.9465
     2.9494   2.9548   2.9553   2.9565   2.9593   2.9731   2.9743   2.9881
     2.9890   2.9984   2.9997   3.0001   3.0116   3.0272   3.0323   3.0387
     3.0394   3.0563   3.0853   3.0857   3.0984   3.1192   3.1198   3.2764
     3.2843   3.3876   3.3877   3.4883   3.4890   3.5981   3.8122   3.8166
     4.1949   4.2131   4.2974   4.2981   4.3119   4.5731   4.6790   4.6907
     4.7047   4.7051   4.8445   5.1489   5.1766   5.1778   5.6241   5.6612
     5.6872   5.7530   5.9154   5.9298   5.9314   6.0617   6.0723   6.1520
     6.2290   6.5968   6.6716   6.6757   6.8453   6.9392   6.9880   7.0541
     7.0556   7.2554   7.2943   7.3785   7.5993   7.7658   7.8904   7.9498
     8.4611   8.4821   8.4841   8.5851   8.7352   9.0026   9.1281   9.1541
     9.2156   9.3146   9.3259   9.4671   9.4824   9.6442   9.6638   9.7011
     9.7965   9.8938  10.0116  10.1178  10.1641  10.3530  10.4196  10.4541
    10.5106  10.6035  10.7032  10.8093  10.8532  11.0653  11.0861  11.1771
    11.2394  11.2558  11.4527  11.4780  11.4862  11.5953  11.6150  11.7021
    11.7109  11.8113  11.8572  11.8617  11.9965  12.0950  12.1362  12.1627
    12.2782  12.3689  12.4125  12.4355  12.5030  12.5417  12.5923  12.6195
    12.7097  12.7393  12.8200  12.8742  12.9398  12.9983  13.1520  13.2316
    13.2792  13.3060  13.3751  13.4193  13.4806  13.5269  13.5368  13.6371
    13.6665  13.6875

          k =-0.2500 0.1443 0.0000 ( 61417 PWs)   bands (ev):

  -107.8308-107.8279-107.8259-107.8250-107.8244-107.8236-107.8230-107.8227
  -107.8221-107.8214-107.8213-107.8206-107.8205-107.8203-107.8200-107.8192
  -107.8192-107.8190-107.8163-107.8154-107.8151-107.8138-107.8137-107.8134
  -107.8130-107.8117-107.8117-107.8096-107.8070-107.8058-107.8057-107.8046
  -107.8044-107.8038-107.8030-107.8022-107.5991-107.5963-107.5954-107.5943
  -107.5937-107.5932-107.5919-107.5904-107.5904-107.5706-107.5677-107.5666
  -107.5666-107.5651-107.5651-107.5647-107.5636-107.5636 -65.2838 -65.2748
   -65.2741 -65.2730 -65.2720 -65.2718 -65.2712 -65.2709 -65.2681 -65.2680
   -65.2671 -65.2670 -65.2654 -65.2652 -65.2607 -65.2595 -65.2593 -65.2574
   -65.2567 -65.2558 -65.2555 -65.2554 -65.2552 -65.2548 -65.2530 -65.2529
   -65.2525 -65.2520 -65.2482 -65.2481 -65.2454 -65.2450 -65.2449 -65.2438
   -65.2436 -65.2430 -65.2424 -65.2422 -65.2402 -65.2401 -65.2378 -65.2378
   -65.2347 -65.2344 -65.2341 -65.2338 -65.2330 -65.2329 -65.2319 -65.2312
   -65.2306 -65.2297 -65.2292 -65.2283 -65.2280 -65.2277 -65.2269 -65.2264
   -65.2261 -65.2246 -65.2242 -65.2241 -65.2238 -65.2238 -65.2236 -65.2213
   -65.2210 -65.2191 -65.2190 -65.2183 -65.2182 -65.2169 -65.2166 -65.2165
   -65.2159 -65.2156 -65.2155 -65.2151 -65.2148 -65.2148 -65.2147 -65.2133
   -65.2131 -65.2116 -65.2114 -65.2106 -65.2101 -65.2095 -65.2095 -65.2091
   -65.2090 -65.2087 -65.2074 -65.2057 -65.2056 -65.2038 -65.2024 -65.2023
   -65.2023 -65.2013 -65.2010 -65.1987 -65.1987 -65.1980 -65.1955 -65.1948
   -65.1917 -65.1886 -65.0622 -65.0569 -65.0566 -65.0552 -65.0547 -65.0435
   -65.0432 -65.0378 -65.0375 -65.0368 -65.0345 -65.0312 -65.0311 -65.0301
   -65.0300 -65.0198 -65.0192 -65.0182 -65.0181 -65.0180 -65.0150 -65.0149
   -65.0124 -65.0123 -65.0111 -65.0095 -65.0071 -65.0039 -64.9940 -64.9939
   -64.9929 -64.9899 -64.9898 -64.9859 -64.9820 -64.9788 -64.9758 -64.9733
   -64.9725 -64.9715 -64.9708 -64.9704 -64.9687 -64.9671 -64.9671 -64.9427
   -64.9399 -64.9389 -64.9388 -64.9375 -64.9375 -64.9371 -64.9361 -64.9361
   -12.6850  -9.9426  -9.9401  -6.3494  -6.3412  -4.3949  -3.8825  -3.2676
    -2.7958  -2.4372  -2.3282  -2.2796  -1.8330  -1.7901  -1.7303  -1.5686
    -1.5682  -1.2235  -1.0865  -1.0847  -0.9363  -0.6155  -0.5121  -0.5117
    -0.4226  -0.4164  -0.3219  -0.3008  -0.2264  -0.2259  -0.0911  -0.0587
    -0.0532   0.0445   0.0481   0.0488   0.1120   0.1525   0.2237   0.2291
     0.2546   0.3204   0.3205   0.5034   0.5095   0.5401   0.5401   0.5644
     0.5761   0.5761   0.5991   0.5994   0.6448   0.6472   0.6487   0.6494
     0.6613   0.6615   0.7021   0.7021   0.7384   0.7384   0.7673   0.7674
     0.7737   0.8183   0.8190   0.8332   0.8332   0.8549   0.8552   0.8677
     0.8678   0.9000   0.9003   0.9428   1.0110   1.0111   1.0160   1.0410
     1.0410   1.0544   1.0551   1.0898   1.0901   1.1257   1.1282   1.1282
     1.1920   1.1920   1.2148   1.2174   1.2381   1.2383   1.2832   1.2837
     1.2996   1.3205   1.3249   1.3257   1.3534   1.3958   1.3964   1.4143
     1.4145   1.4225   1.4557   1.4596   1.4717   1.4946   1.4948   1.5030
     1.5339   1.5343   1.5626   1.5995   1.6144   1.6239   1.6239   1.6358
     1.6364   1.6372   1.6701   1.6750   1.6816   1.6933   1.6935   1.7091
     1.7126   1.7131   1.7312   1.7350   1.7424   1.7529   1.7649   1.7707
     1.7713   1.7786   1.7810   1.7856   1.7886   1.8049   1.8063   1.8102
     1.8102   1.8141   1.8339   1.8383   1.8461   1.8523   1.8587   1.8704
     1.8718   1.8759   1.8770   1.9126   1.9136   1.9227   1.9237   1.9294
     1.9359   1.9369   1.9496   1.9533   1.9539   1.9554   1.9676   1.9815
     1.9867   2.0043   2.0261   2.0283   2.0397   2.0400   2.0520   2.0557
     2.0562   2.0651   2.0691   2.0938   2.0939   2.1077   2.1204   2.1411
     2.1523   2.1584   2.1813   2.1865   2.1919   2.1921   2.2212   2.2244
     2.2539   2.2708   2.2969   2.2988   2.3055   2.3072   2.3183   2.3191
     2.3471   2.3504   2.3599   2.3606   2.3648   2.3665   2.3982   2.3984
     2.4279   2.4330   2.4369   2.4378   2.4455   2.4708   2.4744   2.4767
     2.4794   2.4829   2.5121   2.5230   2.5272   2.5333   2.5339   2.5511
     2.5554   2.5557   2.5730   2.5762   2.5766   2.5766   2.5864   2.5900
     2.6124   2.6218   2.6612   2.6659   2.6704   2.6982   2.6997   2.7085
     2.7112   2.7119   2.7126   2.7164   2.7351   2.7356   2.7371   2.7499
     2.7532   2.7544   2.7582   2.7662   2.7905   2.8042   2.8043   2.8079
     2.8178   2.8184   2.8378   2.8391   2.8457   2.8472   2.8921   2.8923
     2.8923   2.8998   2.8999   2.9055   2.9153   2.9165   2.9224   2.9263
     2.9273   2.9273   2.9339   2.9341   2.9372   2.9428   2.9510   2.9515
     2.9692   2.9814   2.9815   2.9822   2.9841   2.9889   2.9904   2.9907
     3.0127   3.0214   3.0308   3.0334   3.0346   3.0380   3.0511   3.0519
     3.1198   3.1416   3.1844   3.2739   3.2981   3.2984   3.3768   3.4586
     3.4587   3.7120   3.7626   3.7645   3.7686   3.7861   4.0763   4.2780
     4.4600   4.7374   4.7393   4.9569   5.0423   5.0538   5.0882   5.8256
     5.8258   6.0425   6.1840   6.2021   6.2229   6.2236   6.4667   6.7036
     6.7663   6.8914   6.9050   7.2266   7.2839   7.3928   7.4727   7.7234
     7.7569   7.7679   7.9448   8.0136   8.2166   8.2251   8.2760   8.3801
     8.3886   8.6927   8.6949   8.7617   8.8385   8.9405   9.2424   9.2448
     9.3155   9.4030   9.5701   9.6385   9.7731   9.8236   9.9181   9.9490
     9.9896   9.9953  10.0406  10.1134  10.2590  10.3933  10.3955  10.4641
    10.5142  10.5462  10.6080  10.6435  10.7164  10.7640  10.7668  10.8423
    10.9341  10.9448  10.9573  11.0371  11.0954  11.2309  11.4344  11.4504
    11.4808  11.5131  11.5624  11.5826  11.6753  11.7686  11.9173  11.9778
    12.0312  12.1634  12.2224  12.3049  12.3343  12.4174  12.4763  12.5059
    12.5372  12.5728  12.6297  12.6825  12.8248  12.8293  12.8462  12.8733
    12.9496  13.0099  13.1160  13.1331  13.1848  13.2271  13.2369  13.3489
    13.3939  13.4581

          k = 0.2500 0.1443 0.0000 ( 61417 PWs)   bands (ev):

  -107.8308-107.8279-107.8259-107.8250-107.8245-107.8236-107.8230-107.8226
  -107.8221-107.8214-107.8213-107.8206-107.8205-107.8203-107.8200-107.8192
  -107.8192-107.8190-107.8163-107.8154-107.8151-107.8138-107.8137-107.8134
  -107.8130-107.8117-107.8117-107.8096-107.8070-107.8058-107.8057-107.8046
  -107.8044-107.8038-107.8030-107.8022-107.5991-107.5963-107.5954-107.5943
  -107.5937-107.5932-107.5919-107.5904-107.5904-107.5706-107.5677-107.5666
  -107.5666-107.5651-107.5651-107.5647-107.5636-107.5636 -65.2838 -65.2748
   -65.2741 -65.2730 -65.2720 -65.2718 -65.2712 -65.2709 -65.2681 -65.2680
   -65.2671 -65.2670 -65.2654 -65.2652 -65.2607 -65.2595 -65.2593 -65.2574
   -65.2567 -65.2558 -65.2555 -65.2554 -65.2552 -65.2548 -65.2530 -65.2529
   -65.2525 -65.2520 -65.2482 -65.2481 -65.2454 -65.2450 -65.2449 -65.2438
   -65.2436 -65.2430 -65.2424 -65.2422 -65.2402 -65.2401 -65.2378 -65.2378
   -65.2347 -65.2344 -65.2341 -65.2338 -65.2330 -65.2329 -65.2319 -65.2312
   -65.2306 -65.2297 -65.2292 -65.2283 -65.2280 -65.2277 -65.2269 -65.2264
   -65.2261 -65.2246 -65.2242 -65.2241 -65.2238 -65.2238 -65.2236 -65.2213
   -65.2210 -65.2191 -65.2190 -65.2183 -65.2182 -65.2169 -65.2166 -65.2165
   -65.2159 -65.2156 -65.2155 -65.2151 -65.2148 -65.2148 -65.2147 -65.2133
   -65.2131 -65.2116 -65.2114 -65.2106 -65.2101 -65.2095 -65.2095 -65.2091
   -65.2090 -65.2087 -65.2074 -65.2057 -65.2056 -65.2038 -65.2024 -65.2023
   -65.2023 -65.2013 -65.2010 -65.1987 -65.1987 -65.1980 -65.1955 -65.1948
   -65.1917 -65.1886 -65.0622 -65.0569 -65.0566 -65.0552 -65.0547 -65.0435
   -65.0432 -65.0378 -65.0375 -65.0368 -65.0345 -65.0312 -65.0311 -65.0301
   -65.0300 -65.0198 -65.0192 -65.0182 -65.0181 -65.0180 -65.0150 -65.0149
   -65.0124 -65.0123 -65.0111 -65.0095 -65.0071 -65.0039 -64.9940 -64.9939
   -64.9929 -64.9899 -64.9898 -64.9859 -64.9820 -64.9788 -64.9758 -64.9733
   -64.9725 -64.9715 -64.9708 -64.9704 -64.9687 -64.9671 -64.9671 -64.9427
   -64.9399 -64.9389 -64.9388 -64.9375 -64.9375 -64.9371 -64.9361 -64.9361
   -12.6850  -9.9427  -9.9400  -6.3493  -6.3412  -4.3949  -3.8825  -3.2676
    -2.7958  -2.4372  -2.3282  -2.2796  -1.8330  -1.7900  -1.7303  -1.5686
    -1.5682  -1.2235  -1.0865  -1.0847  -0.9363  -0.6155  -0.5121  -0.5117
    -0.4226  -0.4164  -0.3219  -0.3008  -0.2264  -0.2259  -0.0911  -0.0587
    -0.0532   0.0445   0.0481   0.0488   0.1119   0.1526   0.2237   0.2291
     0.2546   0.3204   0.3205   0.5034   0.5095   0.5401   0.5401   0.5644
     0.5761   0.5761   0.5991   0.5994   0.6448   0.6472   0.6487   0.6494
     0.6613   0.6615   0.7021   0.7021   0.7384   0.7384   0.7673   0.7674
     0.7737   0.8183   0.8190   0.8332   0.8332   0.8549   0.8552   0.8677
     0.8678   0.9000   0.9003   0.9428   1.0110   1.0111   1.0160   1.0410
     1.0410   1.0544   1.0551   1.0898   1.0901   1.1257   1.1282   1.1282
     1.1920   1.1920   1.2148   1.2174   1.2381   1.2383   1.2832   1.2837
     1.2996   1.3205   1.3249   1.3257   1.3534   1.3958   1.3964   1.4143
     1.4145   1.4225   1.4557   1.4596   1.4717   1.4946   1.4948   1.5030
     1.5339   1.5343   1.5626   1.5995   1.6144   1.6239   1.6239   1.6358
     1.6364   1.6372   1.6701   1.6750   1.6816   1.6933   1.6935   1.7091
     1.7126   1.7131   1.7312   1.7350   1.7424   1.7529   1.7649   1.7707
     1.7713   1.7786   1.7810   1.7856   1.7886   1.8049   1.8063   1.8102
     1.8102   1.8141   1.8339   1.8383   1.8461   1.8523   1.8587   1.8704
     1.8718   1.8759   1.8770   1.9126   1.9136   1.9227   1.9237   1.9294
     1.9359   1.9369   1.9496   1.9533   1.9539   1.9554   1.9676   1.9815
     1.9867   2.0043   2.0261   2.0283   2.0397   2.0400   2.0520   2.0557
     2.0562   2.0651   2.0691   2.0938   2.0939   2.1077   2.1204   2.1411
     2.1523   2.1584   2.1813   2.1865   2.1919   2.1921   2.2212   2.2244
     2.2539   2.2708   2.2969   2.2988   2.3055   2.3072   2.3183   2.3191
     2.3471   2.3504   2.3599   2.3606   2.3648   2.3665   2.3982   2.3984
     2.4279   2.4330   2.4369   2.4378   2.4455   2.4708   2.4744   2.4767
     2.4794   2.4829   2.5121   2.5230   2.5272   2.5333   2.5339   2.5511
     2.5554   2.5557   2.5730   2.5762   2.5766   2.5766   2.5864   2.5900
     2.6124   2.6218   2.6612   2.6659   2.6704   2.6982   2.6997   2.7085
     2.7112   2.7119   2.7126   2.7164   2.7351   2.7356   2.7371   2.7499
     2.7532   2.7544   2.7582   2.7662   2.7905   2.8042   2.8043   2.8079
     2.8178   2.8184   2.8378   2.8391   2.8457   2.8472   2.8921   2.8923
     2.8923   2.8998   2.8999   2.9055   2.9153   2.9165   2.9224   2.9263
     2.9273   2.9273   2.9339   2.9341   2.9372   2.9428   2.9510   2.9515
     2.9692   2.9814   2.9815   2.9822   2.9841   2.9889   2.9904   2.9907
     3.0127   3.0214   3.0308   3.0334   3.0346   3.0380   3.0511   3.0519
     3.1198   3.1416   3.1844   3.2739   3.2981   3.2984   3.3768   3.4586
     3.4587   3.7120   3.7626   3.7645   3.7686   3.7861   4.0763   4.2780
     4.4600   4.7374   4.7393   4.9569   5.0423   5.0538   5.0882   5.8256
     5.8258   6.0425   6.1840   6.2021   6.2229   6.2236   6.4667   6.7036
     6.7663   6.8914   6.9050   7.2266   7.2839   7.3928   7.4728   7.7234
     7.7569   7.7679   7.9448   8.0136   8.2166   8.2251   8.2760   8.3801
     8.3886   8.6927   8.6949   8.7617   8.8385   8.9406   9.2424   9.2448
     9.3155   9.4030   9.5701   9.6385   9.7730   9.8236   9.9181   9.9490
     9.9896   9.9953  10.0406  10.1134  10.2590  10.3933  10.3955  10.4641
    10.5142  10.5462  10.6080  10.6435  10.7164  10.7640  10.7668  10.8423
    10.9341  10.9448  10.9573  11.0371  11.0954  11.2309  11.4344  11.4504
    11.4808  11.5131  11.5624  11.5826  11.6753  11.7687  11.9173  11.9778
    12.0312  12.1634  12.2224  12.3049  12.3343  12.4174  12.4763  12.5059
    12.5372  12.5728  12.6297  12.6825  12.8247  12.8293  12.8462  12.8733
    12.9496  13.0099  13.1160  13.1331  13.1848  13.2271  13.2369  13.3489
    13.3939  13.4581

          k = 0.5000-0.2887 0.0000 ( 61408 PWs)   bands (ev):

  -107.8300-107.8284-107.8266-107.8253-107.8245-107.8233-107.8226-107.8221
  -107.8218-107.8215-107.8212-107.8212-107.8209-107.8203-107.8196-107.8194
  -107.8190-107.8182-107.8175-107.8155-107.8153-107.8134-107.8134-107.8133
  -107.8129-107.8119-107.8117-107.8088-107.8080-107.8060-107.8059-107.8043
  -107.8036-107.8036-107.8035-107.8022-107.5983-107.5973-107.5955-107.5944
  -107.5936-107.5930-107.5917-107.5905-107.5904-107.5695-107.5693-107.5668
  -107.5668-107.5644-107.5644-107.5642-107.5641-107.5641 -65.2802 -65.2795
   -65.2772 -65.2758 -65.2722 -65.2720 -65.2709 -65.2707 -65.2699 -65.2697
   -65.2691 -65.2689 -65.2687 -65.2681 -65.2648 -65.2585 -65.2580 -65.2579
   -65.2575 -65.2573 -65.2569 -65.2568 -65.2562 -65.2559 -65.2537 -65.2535
   -65.2530 -65.2526 -65.2462 -65.2459 -65.2451 -65.2448 -65.2444 -65.2439
   -65.2428 -65.2392 -65.2391 -65.2368 -65.2356 -65.2355 -65.2354 -65.2351
   -65.2348 -65.2338 -65.2325 -65.2324 -65.2319 -65.2313 -65.2313 -65.2309
   -65.2282 -65.2282 -65.2281 -65.2276 -65.2274 -65.2271 -65.2265 -65.2255
   -65.2229 -65.2223 -65.2220 -65.2216 -65.2215 -65.2211 -65.2209 -65.2208
   -65.2208 -65.2206 -65.2204 -65.2195 -65.2178 -65.2177 -65.2173 -65.2168
   -65.2167 -65.2162 -65.2147 -65.2143 -65.2137 -65.2135 -65.2134 -65.2130
   -65.2122 -65.2121 -65.2116 -65.2108 -65.2104 -65.2102 -65.2101 -65.2097
   -65.2097 -65.2091 -65.2090 -65.2064 -65.2062 -65.2060 -65.2059 -65.2049
   -65.2037 -65.2025 -65.2021 -65.2021 -65.2001 -65.1999 -65.1986 -65.1981
   -65.1915 -65.1909 -65.0663 -65.0592 -65.0589 -65.0578 -65.0574 -65.0410
   -65.0399 -65.0395 -65.0332 -65.0331 -65.0331 -65.0329 -65.0282 -65.0277
   -65.0269 -65.0265 -65.0194 -65.0193 -65.0189 -65.0161 -65.0152 -65.0145
   -65.0144 -65.0078 -65.0062 -65.0021 -65.0020 -65.0020 -65.0018 -64.9940
   -64.9937 -64.9936 -64.9909 -64.9908 -64.9819 -64.9817 -64.9751 -64.9742
   -64.9725 -64.9713 -64.9708 -64.9703 -64.9686 -64.9672 -64.9670 -64.9416
   -64.9414 -64.9391 -64.9391 -64.9368 -64.9368 -64.9367 -64.9365 -64.9365
   -12.6842  -9.9461  -9.9408  -6.3527  -6.3365  -4.3678  -3.2570  -3.2568
    -2.7681  -2.6601  -2.6593  -2.4410  -1.8880  -1.7980  -1.7575  -1.7414
    -1.7243  -1.7232  -1.2166  -1.2144  -0.7743  -0.6886  -0.5431  -0.4936
    -0.4578  -0.1115   0.0640   0.0705   0.0724   0.0923   0.0923   0.0925
     0.0927   0.0971   0.1530   0.1798   0.2504   0.2571   0.2608   0.2667
     0.2716   0.2904   0.2905   0.2906   0.2908   0.3459   0.3461   0.3464
     0.3464   0.4736   0.5101   0.5102   0.5110   0.5111   0.5479   0.5914
     0.6885   0.6886   0.6888   0.6889   0.7014   0.7241   0.7266   0.7412
     0.7412   0.7421   0.7422   0.8623   0.8624   0.8627   0.8628   0.8849
     0.8858   0.9722   0.9841   0.9842   0.9851   0.9852   1.0227   1.0229
     1.0668   1.0669   1.1356   1.1359   1.1367   1.1369   1.1981   1.1983
     1.2282   1.2290   1.2466   1.2470   1.2481   1.2485   1.2672   1.2673
     1.2982   1.3042   1.3527   1.3674   1.3683   1.3953   1.3962   1.4128
     1.4161   1.4245   1.4246   1.4252   1.4252   1.4808   1.4828   1.4853
     1.4858   1.4864   1.4866   1.5362   1.5410   1.5587   1.5603   1.5614
     1.5615   1.5700   1.5708   1.5709   1.6121   1.6292   1.6549   1.6582
     1.6589   1.6666   1.6744   1.7089   1.7093   1.7096   1.7098   1.7098
     1.7182   1.7245   1.7733   1.7739   1.7808   1.7823   1.7938   1.7943
     1.8278   1.8286   1.8289   1.8294   1.8488   1.8527   1.8535   1.8554
     1.8557   1.8789   1.8797   1.8828   1.8833   1.9144   1.9146   1.9365
     1.9465   1.9471   1.9761   1.9946   2.0069   2.0084   2.0147   2.0153
     2.0182   2.0184   2.0240   2.0275   2.0301   2.0355   2.0359   2.0511
     2.0573   2.0611   2.0648   2.0690   2.0691   2.0835   2.0953   2.1414
     2.1492   2.1496   2.1690   2.2309   2.2309   2.2316   2.2320   2.2352
     2.2368   2.2373   2.2455   2.2460   2.2507   2.2645   2.2725   2.2964
     2.3091   2.3098   2.3103   2.3201   2.3309   2.3311   2.3314   2.3324
     2.3324   2.3388   2.3566   2.3570   2.3623   2.3664   2.3670   2.4458
     2.4684   2.4873   2.4876   2.5150   2.5151   2.5158   2.5164   2.5471
     2.5476   2.5521   2.5651   2.5861   2.5875   2.5912   2.5917   2.6022
     2.6135   2.6282   2.6285   2.6287   2.6288   2.6289   2.6418   2.6612
     2.6618   2.6636   2.6672   2.7172   2.7172   2.7184   2.7188   2.7294
     2.7303   2.7536   2.7542   2.7827   2.7833   2.7893   2.7909   2.8157
     2.8158   2.8394   2.8429   2.8484   2.8632   2.9021   2.9039   2.9169
     2.9188   2.9240   2.9245   2.9410   2.9533   2.9534   2.9569   2.9574
     2.9593   2.9609   2.9774   2.9812   2.9813   2.9815   2.9818   2.9990
     2.9994   2.9996   3.0103   3.0132   3.0281   3.0291   3.0466   3.0467
     3.0472   3.0496   3.0552   3.0679   3.0853   3.0982   3.0984   3.0995
     3.0997   3.1985   3.2211   3.7329   3.7548   3.7587   3.7672   4.2640
     4.3099   4.3101   4.3103   4.3105   4.5784   4.5794   4.5802   4.5805
     4.9208   4.9309   4.9536   5.0549   5.0946   5.1303   5.1362   5.1383
     5.1423   5.4224   5.7609   6.0165   6.0373   6.0619   6.0938   6.1168
     6.1201   6.1305   6.1785   6.5704   6.6373   7.1603   7.2548   7.4281
     7.4288   7.4322   7.6172   7.9203   7.9802   8.1677   8.2906   8.4171
     8.5513   8.5561   8.5567   8.5810   8.8966   8.9321   8.9377   9.1908
     9.2027   9.2046   9.2163   9.2449   9.4581   9.6062   9.6536   9.7758
     9.8086   9.8686   9.8856   9.8956   9.9161  10.2749  10.3163  10.3672
    10.4063  10.4339  10.4949  10.5043  10.5270  10.8065  10.8570  11.0214
    11.0776  11.1665  11.2581  11.2753  11.3513  11.3787  11.4433  11.4800
    11.4858  11.5748  11.7171  12.0339  12.1174  12.1373  12.2287  12.2670
    12.2771  12.3110  12.4381  12.5321  12.7555  12.7766  12.8958  12.9597
    12.9790  13.0363  13.0406  13.1024  13.1171  13.2101  13.2249  13.2435
    13.2566  13.2886  13.2970  13.3402  13.4970  13.6157  13.6853  13.6858
    13.7489  13.8403

          k =-0.5000-0.2887 0.0000 ( 61408 PWs)   bands (ev):

  -107.8300-107.8284-107.8266-107.8253-107.8245-107.8233-107.8226-107.8220
  -107.8218-107.8215-107.8212-107.8212-107.8209-107.8203-107.8196-107.8194
  -107.8190-107.8182-107.8175-107.8155-107.8153-107.8134-107.8134-107.8133
  -107.8129-107.8119-107.8117-107.8088-107.8080-107.8060-107.8059-107.8043
  -107.8036-107.8036-107.8035-107.8022-107.5983-107.5973-107.5955-107.5944
  -107.5936-107.5930-107.5917-107.5905-107.5904-107.5695-107.5693-107.5668
  -107.5668-107.5644-107.5644-107.5642-107.5641-107.5641 -65.2802 -65.2795
   -65.2772 -65.2758 -65.2722 -65.2720 -65.2709 -65.2707 -65.2699 -65.2697
   -65.2691 -65.2689 -65.2687 -65.2681 -65.2648 -65.2585 -65.2580 -65.2579
   -65.2575 -65.2573 -65.2569 -65.2568 -65.2562 -65.2559 -65.2537 -65.2535
   -65.2530 -65.2526 -65.2462 -65.2459 -65.2451 -65.2448 -65.2444 -65.2439
   -65.2428 -65.2392 -65.2391 -65.2368 -65.2356 -65.2355 -65.2354 -65.2351
   -65.2348 -65.2338 -65.2325 -65.2324 -65.2319 -65.2313 -65.2313 -65.2309
   -65.2282 -65.2282 -65.2281 -65.2276 -65.2274 -65.2271 -65.2265 -65.2255
   -65.2229 -65.2223 -65.2220 -65.2216 -65.2215 -65.2211 -65.2209 -65.2208
   -65.2208 -65.2206 -65.2204 -65.2195 -65.2178 -65.2177 -65.2173 -65.2168
   -65.2167 -65.2162 -65.2147 -65.2143 -65.2137 -65.2135 -65.2134 -65.2130
   -65.2122 -65.2121 -65.2116 -65.2108 -65.2104 -65.2102 -65.2101 -65.2097
   -65.2097 -65.2091 -65.2090 -65.2064 -65.2062 -65.2060 -65.2059 -65.2049
   -65.2037 -65.2025 -65.2021 -65.2021 -65.2001 -65.1999 -65.1986 -65.1981
   -65.1915 -65.1909 -65.0663 -65.0592 -65.0589 -65.0578 -65.0574 -65.0410
   -65.0399 -65.0395 -65.0332 -65.0331 -65.0331 -65.0329 -65.0282 -65.0277
   -65.0269 -65.0266 -65.0194 -65.0193 -65.0189 -65.0161 -65.0152 -65.0145
   -65.0144 -65.0078 -65.0062 -65.0021 -65.0020 -65.0020 -65.0018 -64.9940
   -64.9937 -64.9936 -64.9909 -64.9908 -64.9819 -64.9817 -64.9751 -64.9742
   -64.9725 -64.9713 -64.9708 -64.9703 -64.9686 -64.9672 -64.9670 -64.9416
   -64.9414 -64.9391 -64.9391 -64.9368 -64.9368 -64.9367 -64.9365 -64.9365
   -12.6842  -9.9462  -9.9408  -6.3526  -6.3366  -4.3678  -3.2570  -3.2568
    -2.7681  -2.6601  -2.6593  -2.4410  -1.8881  -1.7979  -1.7575  -1.7414
    -1.7243  -1.7232  -1.2166  -1.2144  -0.7743  -0.6886  -0.5431  -0.4936
    -0.4578  -0.1115   0.0640   0.0705   0.0724   0.0923   0.0923   0.0925
     0.0927   0.0971   0.1531   0.1798   0.2504   0.2571   0.2608   0.2667
     0.2716   0.2904   0.2905   0.2906   0.2908   0.3459   0.3461   0.3464
     0.3464   0.4736   0.5101   0.5102   0.5110   0.5111   0.5479   0.5914
     0.6885   0.6886   0.6888   0.6889   0.7014   0.7241   0.7266   0.7412
     0.7412   0.7421   0.7422   0.8623   0.8624   0.8627   0.8628   0.8849
     0.8858   0.9722   0.9841   0.9842   0.9851   0.9852   1.0227   1.0229
     1.0668   1.0669   1.1356   1.1359   1.1367   1.1369   1.1981   1.1983
     1.2282   1.2290   1.2466   1.2470   1.2481   1.2485   1.2672   1.2673
     1.2982   1.3042   1.3527   1.3674   1.3683   1.3953   1.3962   1.4128
     1.4161   1.4245   1.4246   1.4252   1.4252   1.4808   1.4828   1.4853
     1.4858   1.4864   1.4866   1.5362   1.5410   1.5587   1.5603   1.5614
     1.5615   1.5700   1.5708   1.5709   1.6121   1.6292   1.6549   1.6582
     1.6589   1.6666   1.6744   1.7089   1.7093   1.7096   1.7098   1.7098
     1.7182   1.7245   1.7733   1.7739   1.7808   1.7823   1.7938   1.7943
     1.8278   1.8286   1.8289   1.8294   1.8488   1.8527   1.8535   1.8554
     1.8557   1.8789   1.8797   1.8828   1.8833   1.9144   1.9146   1.9365
     1.9465   1.9471   1.9761   1.9946   2.0069   2.0084   2.0147   2.0153
     2.0182   2.0184   2.0240   2.0275   2.0301   2.0355   2.0359   2.0511
     2.0573   2.0611   2.0648   2.0690   2.0691   2.0835   2.0953   2.1414
     2.1492   2.1496   2.1691   2.2309   2.2309   2.2316   2.2320   2.2352
     2.2368   2.2373   2.2455   2.2460   2.2507   2.2645   2.2725   2.2964
     2.3091   2.3098   2.3103   2.3201   2.3309   2.3311   2.3314   2.3324
     2.3324   2.3388   2.3566   2.3570   2.3623   2.3664   2.3670   2.4458
     2.4684   2.4873   2.4876   2.5150   2.5151   2.5158   2.5164   2.5471
     2.5476   2.5521   2.5651   2.5861   2.5875   2.5912   2.5917   2.6022
     2.6135   2.6282   2.6285   2.6287   2.6288   2.6289   2.6418   2.6612
     2.6618   2.6636   2.6672   2.7172   2.7172   2.7184   2.7188   2.7294
     2.7303   2.7536   2.7542   2.7827   2.7833   2.7893   2.7909   2.8157
     2.8158   2.8394   2.8429   2.8484   2.8632   2.9021   2.9039   2.9169
     2.9188   2.9240   2.9245   2.9410   2.9533   2.9534   2.9569   2.9574
     2.9593   2.9609   2.9774   2.9812   2.9813   2.9815   2.9818   2.9990
     2.9994   2.9996   3.0103   3.0132   3.0281   3.0291   3.0466   3.0467
     3.0472   3.0496   3.0552   3.0679   3.0853   3.0982   3.0984   3.0995
     3.0997   3.1985   3.2211   3.7329   3.7548   3.7587   3.7672   4.2640
     4.3099   4.3101   4.3103   4.3105   4.5784   4.5794   4.5802   4.5805
     4.9208   4.9309   4.9536   5.0549   5.0946   5.1303   5.1362   5.1383
     5.1423   5.4224   5.7609   6.0165   6.0373   6.0619   6.0938   6.1168
     6.1201   6.1305   6.1785   6.5704   6.6373   7.1603   7.2548   7.4281
     7.4288   7.4322   7.6172   7.9203   7.9802   8.1677   8.2906   8.4171
     8.5513   8.5561   8.5567   8.5810   8.8966   8.9321   8.9377   9.1908
     9.2027   9.2046   9.2163   9.2449   9.4581   9.6061   9.6536   9.7758
     9.8086   9.8686   9.8856   9.8956   9.9161  10.2749  10.3163  10.3672
    10.4063  10.4339  10.4949  10.5043  10.5270  10.8065  10.8570  11.0214
    11.0776  11.1666  11.2581  11.2753  11.3513  11.3787  11.4433  11.4800
    11.4858  11.5748  11.7171  12.0339  12.1174  12.1373  12.2287  12.2670
    12.2771  12.3110  12.4381  12.5321  12.7554  12.7767  12.8958  12.9597
    12.9790  13.0363  13.0406  13.1024  13.1171  13.2101  13.2250  13.2435
    13.2566  13.2886  13.2970  13.3402  13.4970  13.6157  13.6853  13.6858
    13.7489  13.8403

          k =-0.2500-0.7217 0.0000 ( 61343 PWs)   bands (ev):

  -107.8301-107.8281-107.8269-107.8258-107.8234-107.8233-107.8230-107.8223
  -107.8221-107.8215-107.8212-107.8211-107.8208-107.8200-107.8199-107.8194
  -107.8190-107.8183-107.8170-107.8165-107.8145-107.8136-107.8134-107.8133
  -107.8130-107.8119-107.8117-107.8089-107.8076-107.8070-107.8051-107.8044
  -107.8040-107.8035-107.8034-107.8022-107.5984-107.5971-107.5960-107.5939
  -107.5937-107.5931-107.5917-107.5906-107.5903-107.5698-107.5684-107.5682
  -107.5654-107.5653-107.5644-107.5643-107.5641-107.5638 -65.2811 -65.2768
   -65.2761 -65.2754 -65.2748 -65.2741 -65.2736 -65.2723 -65.2707 -65.2691
   -65.2687 -65.2677 -65.2650 -65.2633 -65.2628 -65.2624 -65.2623 -65.2598
   -65.2574 -65.2562 -65.2561 -65.2560 -65.2556 -65.2543 -65.2539 -65.2531
   -65.2523 -65.2520 -65.2495 -65.2489 -65.2448 -65.2438 -65.2434 -65.2426
   -65.2402 -65.2399 -65.2394 -65.2390 -65.2386 -65.2361 -65.2353 -65.2351
   -65.2343 -65.2336 -65.2330 -65.2326 -65.2317 -65.2294 -65.2290 -65.2288
   -65.2286 -65.2284 -65.2282 -65.2272 -65.2268 -65.2264 -65.2258 -65.2250
   -65.2246 -65.2233 -65.2231 -65.2229 -65.2227 -65.2222 -65.2206 -65.2197
   -65.2194 -65.2192 -65.2188 -65.2186 -65.2179 -65.2178 -65.2174 -65.2171
   -65.2169 -65.2160 -65.2156 -65.2149 -65.2145 -65.2141 -65.2137 -65.2126
   -65.2120 -65.2116 -65.2115 -65.2113 -65.2111 -65.2110 -65.2109 -65.2106
   -65.2090 -65.2085 -65.2082 -65.2065 -65.2061 -65.2055 -65.2052 -65.2052
   -65.2044 -65.2042 -65.2022 -65.2012 -65.2011 -65.2001 -65.1966 -65.1946
   -65.1945 -65.1908 -65.0645 -65.0635 -65.0611 -65.0545 -65.0510 -65.0500
   -65.0388 -65.0387 -65.0359 -65.0313 -65.0295 -65.0293 -65.0282 -65.0278
   -65.0254 -65.0253 -65.0233 -65.0220 -65.0215 -65.0211 -65.0149 -65.0106
   -65.0100 -65.0061 -65.0058 -65.0038 -65.0029 -65.0029 -64.9972 -64.9971
   -64.9964 -64.9963 -64.9897 -64.9852 -64.9851 -64.9811 -64.9752 -64.9740
   -64.9728 -64.9710 -64.9709 -64.9704 -64.9686 -64.9672 -64.9670 -64.9419
   -64.9405 -64.9404 -64.9378 -64.9376 -64.9368 -64.9367 -64.9365 -64.9363
   -12.6842  -9.9449  -9.9421  -6.3484  -6.3407  -4.3680  -3.4625  -2.8585
    -2.7678  -2.6564  -2.6562  -2.4408  -2.0853  -2.0839  -1.9456  -1.8526
    -1.8178  -1.2345  -1.2245  -0.8802  -0.6464  -0.6454  -0.5818  -0.2956
    -0.2947  -0.2546  -0.2288  -0.0544  -0.0543  -0.0446   0.0898   0.1173
     0.1225   0.1357   0.1402   0.1405   0.1573   0.2064   0.2182   0.2183
     0.2358   0.3344   0.3376   0.3405   0.3407   0.4118   0.4182   0.4781
     0.4793   0.4907   0.5018   0.5298   0.5299   0.5324   0.5506   0.5520
     0.6164   0.6170   0.6449   0.6458   0.6760   0.6761   0.7023   0.7109
     0.7113   0.7772   0.7774   0.8056   0.8269   0.8393   0.8397   0.9126
     0.9150   0.9657   0.9852   0.9856   1.0127   1.0131   1.0717   1.0805
     1.0812   1.0969   1.0970   1.1095   1.1491   1.1759   1.1763   1.2192
     1.2198   1.2455   1.2495   1.2510   1.2527   1.2696   1.2697   1.3273
     1.3281   1.3315   1.3321   1.3362   1.3474   1.3654   1.3667   1.3786
     1.3798   1.4064   1.4084   1.4301   1.4305   1.4321   1.4511   1.4772
     1.5175   1.5245   1.5252   1.5258   1.5269   1.5552   1.5733   1.5765
     1.5789   1.6156   1.6166   1.6171   1.6200   1.6267   1.6497   1.6703
     1.6708   1.6861   1.6862   1.7070   1.7138   1.7248   1.7253   1.7326
     1.7338   1.7506   1.7516   1.7685   1.7689   1.7845   1.7920   1.8104
     1.8155   1.8222   1.8368   1.8502   1.8526   1.8535   1.8620   1.8695
     1.8706   1.8803   1.8823   1.8828   1.8966   1.8973   1.8994   1.9001
     1.9223   1.9294   1.9507   1.9525   1.9645   1.9710   1.9772   1.9783
     1.9884   1.9887   1.9892   1.9932   1.9964   1.9977   2.0018   2.0037
     2.0465   2.0527   2.0825   2.0943   2.1316   2.1328   2.1346   2.1392
     2.1457   2.1509   2.1667   2.1668   2.1903   2.2032   2.2066   2.2114
     2.2330   2.2343   2.2698   2.2749   2.2756   2.3029   2.3040   2.3056
     2.3064   2.3081   2.3100   2.3119   2.3158   2.3241   2.3427   2.3444
     2.3885   2.3924   2.3933   2.3953   2.4011   2.4056   2.4130   2.4367
     2.4416   2.4458   2.4599   2.4828   2.4832   2.5031   2.5097   2.5103
     2.5215   2.5248   2.5549   2.5632   2.5677   2.5696   2.5957   2.5970
     2.6183   2.6237   2.6243   2.6427   2.6448   2.6659   2.6673   2.6688
     2.6714   2.6754   2.6864   2.6869   2.6919   2.6988   2.7052   2.7230
     2.7574   2.7619   2.7626   2.7678   2.8133   2.8138   2.8255   2.8290
     2.8573   2.8693   2.8704   2.8765   2.8770   2.8888   2.8929   2.9207
     2.9221   2.9223   2.9312   2.9317   2.9417   2.9443   2.9457   2.9465
     2.9494   2.9548   2.9553   2.9565   2.9593   2.9731   2.9743   2.9881
     2.9890   2.9984   2.9997   3.0001   3.0116   3.0272   3.0323   3.0387
     3.0394   3.0563   3.0853   3.0857   3.0984   3.1192   3.1198   3.2764
     3.2843   3.3876   3.3877   3.4883   3.4890   3.5981   3.8122   3.8166
     4.1949   4.2131   4.2974   4.2981   4.3119   4.5731   4.6790   4.6907
     4.7047   4.7051   4.8445   5.1489   5.1766   5.1778   5.6241   5.6612
     5.6872   5.7530   5.9154   5.9298   5.9314   6.0617   6.0723   6.1520
     6.2290   6.5968   6.6716   6.6757   6.8453   6.9392   6.9880   7.0541
     7.0556   7.2554   7.2943   7.3785   7.5993   7.7658   7.8904   7.9498
     8.4611   8.4821   8.4841   8.5851   8.7352   9.0026   9.1281   9.1541
     9.2156   9.3147   9.3259   9.4671   9.4824   9.6442   9.6638   9.7011
     9.7965   9.8938  10.0116  10.1178  10.1641  10.3530  10.4196  10.4541
    10.5106  10.6035  10.7032  10.8093  10.8532  11.0653  11.0861  11.1772
    11.2394  11.2558  11.4527  11.4781  11.4862  11.5952  11.6150  11.7021
    11.7109  11.8113  11.8572  11.8617  11.9965  12.0950  12.1362  12.1627
    12.2783  12.3689  12.4125  12.4355  12.5030  12.5417  12.5923  12.6195
    12.7097  12.7393  12.8200  12.8741  12.9398  12.9983  13.1520  13.2317
    13.2792  13.3059  13.3751  13.4193  13.4806  13.5269  13.5368  13.6371
    13.6665  13.6874

          k =-0.5000-0.5774 0.0000 ( 61343 PWs)   bands (ev):

  -107.8301-107.8281-107.8269-107.8258-107.8234-107.8233-107.8230-107.8223
  -107.8221-107.8215-107.8212-107.8211-107.8208-107.8200-107.8199-107.8194
  -107.8190-107.8183-107.8170-107.8165-107.8145-107.8136-107.8134-107.8133
  -107.8130-107.8119-107.8117-107.8089-107.8076-107.8070-107.8051-107.8044
  -107.8040-107.8035-107.8034-107.8022-107.5984-107.5971-107.5960-107.5939
  -107.5937-107.5931-107.5917-107.5906-107.5903-107.5698-107.5684-107.5682
  -107.5654-107.5653-107.5644-107.5643-107.5641-107.5638 -65.2811 -65.2768
   -65.2761 -65.2754 -65.2748 -65.2741 -65.2736 -65.2723 -65.2707 -65.2690
   -65.2687 -65.2677 -65.2650 -65.2633 -65.2628 -65.2624 -65.2623 -65.2598
   -65.2574 -65.2562 -65.2561 -65.2560 -65.2556 -65.2543 -65.2539 -65.2531
   -65.2523 -65.2520 -65.2495 -65.2489 -65.2448 -65.2438 -65.2434 -65.2426
   -65.2402 -65.2399 -65.2394 -65.2389 -65.2386 -65.2361 -65.2353 -65.2351
   -65.2343 -65.2336 -65.2330 -65.2326 -65.2317 -65.2294 -65.2290 -65.2288
   -65.2286 -65.2284 -65.2282 -65.2272 -65.2268 -65.2264 -65.2258 -65.2250
   -65.2246 -65.2233 -65.2231 -65.2229 -65.2227 -65.2222 -65.2206 -65.2197
   -65.2194 -65.2192 -65.2188 -65.2186 -65.2179 -65.2178 -65.2174 -65.2171
   -65.2169 -65.2160 -65.2156 -65.2149 -65.2145 -65.2141 -65.2137 -65.2126
   -65.2120 -65.2116 -65.2115 -65.2113 -65.2111 -65.2110 -65.2109 -65.2106
   -65.2090 -65.2085 -65.2082 -65.2065 -65.2061 -65.2055 -65.2052 -65.2052
   -65.2044 -65.2042 -65.2022 -65.2012 -65.2011 -65.2001 -65.1966 -65.1946
   -65.1945 -65.1908 -65.0645 -65.0635 -65.0611 -65.0545 -65.0510 -65.0500
   -65.0388 -65.0387 -65.0359 -65.0313 -65.0296 -65.0293 -65.0282 -65.0278
   -65.0254 -65.0253 -65.0233 -65.0220 -65.0215 -65.0211 -65.0149 -65.0106
   -65.0100 -65.0061 -65.0058 -65.0038 -65.0029 -65.0029 -64.9972 -64.9971
   -64.9964 -64.9963 -64.9897 -64.9852 -64.9851 -64.9811 -64.9751 -64.9740
   -64.9728 -64.9710 -64.9709 -64.9704 -64.9686 -64.9672 -64.9670 -64.9419
   -64.9405 -64.9404 -64.9378 -64.9376 -64.9368 -64.9367 -64.9365 -64.9363
   -12.6842  -9.9447  -9.9422  -6.3488  -6.3404  -4.3680  -3.4625  -2.8585
    -2.7678  -2.6564  -2.6562  -2.4408  -2.0853  -2.0839  -1.9456  -1.8527
    -1.8178  -1.2345  -1.2245  -0.8802  -0.6464  -0.6454  -0.5818  -0.2956
    -0.2947  -0.2546  -0.2288  -0.0544  -0.0543  -0.0446   0.0899   0.1173
     0.1225   0.1356   0.1402   0.1405   0.1573   0.2064   0.2182   0.2183
     0.2358   0.3344   0.3376   0.3405   0.3407   0.4118   0.4182   0.4781
     0.4793   0.4907   0.5018   0.5298   0.5299   0.5324   0.5506   0.5520
     0.6164   0.6170   0.6449   0.6458   0.6760   0.6761   0.7023   0.7109
     0.7113   0.7772   0.7774   0.8056   0.8269   0.8393   0.8397   0.9126
     0.9150   0.9657   0.9852   0.9856   1.0127   1.0131   1.0717   1.0805
     1.0812   1.0969   1.0970   1.1095   1.1491   1.1759   1.1763   1.2192
     1.2198   1.2455   1.2495   1.2510   1.2527   1.2696   1.2697   1.3273
     1.3281   1.3315   1.3321   1.3362   1.3474   1.3654   1.3667   1.3786
     1.3798   1.4064   1.4084   1.4301   1.4305   1.4321   1.4511   1.4772
     1.5175   1.5245   1.5252   1.5258   1.5269   1.5552   1.5733   1.5765
     1.5789   1.6156   1.6166   1.6171   1.6200   1.6267   1.6497   1.6703
     1.6709   1.6861   1.6862   1.7070   1.7138   1.7248   1.7253   1.7326
     1.7338   1.7506   1.7516   1.7685   1.7689   1.7845   1.7920   1.8104
     1.8155   1.8222   1.8367   1.8502   1.8526   1.8535   1.8620   1.8695
     1.8706   1.8803   1.8823   1.8828   1.8966   1.8973   1.8994   1.9001
     1.9223   1.9294   1.9507   1.9525   1.9645   1.9710   1.9772   1.9783
     1.9884   1.9887   1.9892   1.9932   1.9964   1.9977   2.0019   2.0037
     2.0465   2.0527   2.0825   2.0943   2.1316   2.1328   2.1346   2.1392
     2.1457   2.1509   2.1667   2.1668   2.1903   2.2032   2.2066   2.2114
     2.2330   2.2343   2.2698   2.2749   2.2756   2.3029   2.3040   2.3056
     2.3064   2.3081   2.3100   2.3119   2.3158   2.3241   2.3427   2.3444
     2.3885   2.3924   2.3933   2.3953   2.4011   2.4056   2.4130   2.4367
     2.4416   2.4458   2.4599   2.4827   2.4832   2.5031   2.5097   2.5103
     2.5215   2.5248   2.5549   2.5632   2.5677   2.5696   2.5957   2.5970
     2.6183   2.6237   2.6243   2.6427   2.6448   2.6659   2.6673   2.6688
     2.6714   2.6754   2.6864   2.6869   2.6919   2.6988   2.7052   2.7230
     2.7574   2.7619   2.7626   2.7678   2.8133   2.8138   2.8255   2.8290
     2.8573   2.8693   2.8704   2.8765   2.8770   2.8888   2.8929   2.9207
     2.9221   2.9223   2.9312   2.9317   2.9417   2.9443   2.9457   2.9465
     2.9494   2.9548   2.9553   2.9565   2.9593   2.9731   2.9743   2.9881
     2.9890   2.9984   2.9997   3.0001   3.0116   3.0272   3.0323   3.0387
     3.0394   3.0563   3.0853   3.0857   3.0984   3.1192   3.1198   3.2764
     3.2843   3.3876   3.3877   3.4883   3.4890   3.5981   3.8122   3.8166
     4.1949   4.2131   4.2974   4.2981   4.3119   4.5731   4.6790   4.6907
     4.7047   4.7051   4.8445   5.1489   5.1766   5.1778   5.6241   5.6611
     5.6872   5.7530   5.9154   5.9298   5.9314   6.0617   6.0723   6.1520
     6.2290   6.5968   6.6716   6.6757   6.8453   6.9392   6.9880   7.0541
     7.0556   7.2555   7.2942   7.3785   7.5993   7.7658   7.8904   7.9498
     8.4611   8.4821   8.4841   8.5851   8.7352   9.0027   9.1281   9.1541
     9.2156   9.3146   9.3259   9.4671   9.4824   9.6441   9.6638   9.7012
     9.7965   9.8938  10.0116  10.1178  10.1641  10.3530  10.4196  10.4541
    10.5106  10.6035  10.7032  10.8093  10.8532  11.0653  11.0861  11.1772
    11.2394  11.2558  11.4527  11.4781  11.4862  11.5953  11.6150  11.7021
    11.7109  11.8113  11.8572  11.8618  11.9965  12.0950  12.1362  12.1628
    12.2784  12.3689  12.4125  12.4355  12.5030  12.5417  12.5923  12.6195
    12.7097  12.7393  12.8200  12.8741  12.9398  12.9983  13.1520  13.2315
    13.2792  13.3060  13.3751  13.4193  13.4806  13.5269  13.5369  13.6371
    13.6665  13.6875

     the Fermi energy is     4.6169 ev

!    total energy              =  -21903.76840588 Ry
     Harris-Foulkes estimate   =  -21903.76840605 Ry
     estimated scf accuracy    <          6.5E-09 Ry

     The total energy is the sum of the following terms:

     one-electron contribution = -207241.04801419 Ry
     hartree contribution      =  103823.42060942 Ry
     xc contribution           =   -2143.19587479 Ry
     ewald contribution        =   83657.10750892 Ry
     smearing contrib. (-TS)   =      -0.05263524 Ry

     convergence has been achieved in  37 iterations
 
     init_run     :     85.17s CPU     88.26s WALL (       1 calls)
     electrons    :  17070.35s CPU  17412.36s WALL (       1 calls)

     Called by init_run:
     wfcinit      :     75.04s CPU     77.16s WALL (       1 calls)
     potinit      :      7.06s CPU      7.39s WALL (       1 calls)
     hinit0       :      1.31s CPU      1.34s WALL (       1 calls)

     Called by electrons:
     c_bands      :  15794.52s CPU  16071.70s WALL (      37 calls)
     sum_band     :    989.69s CPU   1027.51s WALL (      37 calls)
     v_of_rho     :    234.94s CPU    243.70s WALL (      38 calls)
     newd         :     46.86s CPU     65.62s WALL (      38 calls)
     mix_rho      :      7.36s CPU      7.53s WALL (      37 calls)

     Called by c_bands:
     init_us_2    :     15.04s CPU     15.66s WALL (     750 calls)
     cegterg      :  15674.22s CPU  15944.61s WALL (     370 calls)

     Called by sum_band:
     sum_band:bec :      2.88s CPU      2.90s WALL (     370 calls)
     addusdens    :     34.88s CPU     58.23s WALL (      37 calls)

     Called by *egterg:
     h_psi        :   4678.70s CPU   4764.71s WALL (    1964 calls)
     s_psi        :    372.99s CPU    373.43s WALL (    1964 calls)
     g_psi        :      6.32s CPU      6.34s WALL (    1584 calls)
     cdiaghg      :   8452.97s CPU   8534.66s WALL (    1954 calls)

     Called by h_psi:
     h_psi:pot    :   4668.95s CPU   4736.30s WALL (    1964 calls)
     h_psi:calbec :    460.69s CPU    465.10s WALL (    1964 calls)
     vloc_psi     :   3833.67s CPU   3895.05s WALL (    1964 calls)
     add_vuspsi   :    374.56s CPU    376.13s WALL (    1964 calls)

     General routines
     calbec       :    615.30s CPU    620.20s WALL (    2334 calls)
     fft          :    212.89s CPU    214.60s WALL (    2393 calls)
     ffts         :      2.23s CPU      2.24s WALL (      75 calls)
     fftw         :   4369.70s CPU   4438.79s WALL ( 1483150 calls)
     interpolate  :      3.53s CPU      3.56s WALL (      38 calls)
 
     Parallel routines
     fft_scatt_xy :    234.58s CPU    237.28s WALL ( 1485618 calls)
     fft_scatt_yz :   3508.15s CPU   3564.38s WALL ( 1485618 calls)
 
     PWSCF        :     4h45m CPU       45h 4m WALL

      51h
 
   This run was terminated on:  19:11:24  20Nov2019            

=------------------------------------------------------------------------------=
   JOB DONE.
=------------------------------------------------------------------------------=
