
     Program PWSCF v.6.3MaX starts on 24Nov2019 at 19:57:12 

     This program is part of the open-source Quantum ESPRESSO suite
     for quantum simulation of materials; please cite
         "P. Giannozzi et al., J. Phys.:Condens. Matter 21 395502 (2009);
         "P. Giannozzi et al., J. Phys.:Condens. Matter 29 465901 (2017);
          URL http://www.quantum-espresso.org", 
     in publications or presentations arising from this work. More details at
     http://www.quantum-espresso.org/quote

     Parallel version (MPI), running on    16 processors

     MPI processes distributed on     2 nodes
     R & G space division:  proc/nbgrp/npool/nimage =      16
     Waiting for input...
     Reading input from standard input

     Current dimensions of program PWSCF are:
     Max number of different atomic species (ntypx) = 10
     Max number of k-points (npk) =  40000
     Max angular momentum in pseudopotentials (lmaxx) =  3
     Message from routine iosys:
     minimal I/O required, wf_collect reset to FALSE

     IMPORTANT: XC functional enforced from input :
     Exchange-correlation      = VDW-DF ( 1  4  4  0 1 0)
     Any further DFT definition will be discarded
     Please, verify this is what you really want


     Subspace diagonalization in iterative solution of the eigenvalue problem:
     one sub-group per band group will be used
     scalapack distributed-memory algorithm (size of sub-group:  2*  2 procs)

 
     Parallelization info
     --------------------
     sticks:   dense  smooth     PW     G-vecs:    dense   smooth      PW
     Min         565     189     51               159513    30701    4383
     Max         566     190     52               159526    30710    4400
     Sum        9055    3037    823              2552337   491295   70261
 


     bravais-lattice index     =            0
     lattice parameter (alat)  =      14.8058  a.u.
     unit-cell volume          =   10282.4791 (a.u.)^3
     number of atoms/cell      =           66
     number of atomic types    =            3
     number of electrons       =      1056.00
     number of Kohn-Sham states=          634
     kinetic-energy cutoff     =      50.0000  Ry
     charge density cutoff     =     600.0000  Ry
     convergence threshold     =      1.0E-08
     mixing beta               =       0.3000
     number of iterations used =            8  plain     mixing
     Exchange-correlation      = VDW-DF ( 1  4  4  0 1 0)

     celldm(1)=  14.805786  celldm(2)=   0.000000  celldm(3)=   0.000000
     celldm(4)=   0.000000  celldm(5)=   0.000000  celldm(6)=   0.000000

     crystal axes: (cart. coord. in units of alat)
               a(1) = (   1.000000   0.000000   0.000000 )  
               a(2) = (   0.500000   0.866025   0.000000 )  
               a(3) = (   0.000000   0.000000   3.658245 )  

     reciprocal axes: (cart. coord. in units 2 pi/alat)
               b(1) = (  1.000000 -0.577350  0.000000 )  
               b(2) = (  0.000000  1.154701  0.000000 )  
               b(3) = (  0.000000  0.000000  0.273355 )  


     PseudoPot. # 1 for Cu read from file:
     /deac/thonhauserGrp/chakrad/calculations/atomandmolecule-qe6.2.1-i2012-C6modif/all_pbe_UPF_v1.5/cu_pbe_v1.2.uspp.F.UPF
     MD5 check sum: 6e991ff952a84172a2a52a1c1e996048
     Pseudo is Ultrasoft + core correction, Zval = 19.0
     Generated by new atomic code, or converted to UPF format
     Using radial grid of  867 points,  6 beta functions with: 
                l(1) =   0
                l(2) =   0
                l(3) =   1
                l(4) =   1
                l(5) =   2
                l(6) =   2
     Q(r) pseudized with  8 coefficients,  rinner =    1.150   1.150   1.150
                                                       1.150   1.150

     PseudoPot. # 2 for C  read from file:
     /deac/thonhauserGrp/chakrad/calculations/atomandmolecule-qe6.2.1-i2012-C6modif/all_pbe_UPF_v1.5/c_pbe_v1.2.uspp.F.UPF
     MD5 check sum: d1aef80898a10debaa0f26306b886e00
     Pseudo is Ultrasoft + core correction, Zval =  4.0
     Generated by new atomic code, or converted to UPF format
     Using radial grid of  721 points,  4 beta functions with: 
                l(1) =   0
                l(2) =   0
                l(3) =   1
                l(4) =   1
     Q(r) pseudized with  8 coefficients,  rinner =    1.100   1.100   1.100


     PseudoPot. # 3 for H  read from file:
     /deac/thonhauserGrp/chakrad/calculations/atomandmolecule-qe6.2.1-i2012-C6modif/all_pbe_UPF_v1.5/h_pbe_v1.4.uspp.F.UPF
     MD5 check sum: 761ae9a214b05c3daf00ab9f6b793d6f
     Pseudo is Ultrasoft, Zval =  1.0
     Generated by new atomic code, or converted to UPF format
     Using radial grid of  615 points,  2 beta functions with: 
                l(1) =   0
                l(2) =   0
     Q(r) pseudized with  8 coefficients,  rinner =    0.700

     vdW kernel table read from file vdW_kernel_table
     MD5 check sum: cc9485f6209b1096fbef62427c856dab

     atomic species   valence    mass     pseudopotential
        Cu            19.00     1.00000     Cu( 1.00)
        C              4.00     1.00000     C ( 1.00)
        H              1.00     1.00000     H ( 1.00)

     No symmetry found



   Cartesian axes

     site n.     atom                  positions (alat units)
         1           Cu  tau(   1) = (   0.1666667   0.0962250   0.2552686  )
         2           Cu  tau(   2) = (   0.5000000   0.0962250   0.2552686  )
         3           Cu  tau(   3) = (   0.8333333   0.0962250   0.2552686  )
         4           Cu  tau(   4) = (   0.3333333   0.3849002   0.2552686  )
         5           Cu  tau(   5) = (   0.6666667   0.3849002   0.2552686  )
         6           Cu  tau(   6) = (   1.0000000   0.3849002   0.2552686  )
         7           Cu  tau(   7) = (   0.5000000   0.6735753   0.2552686  )
         8           Cu  tau(   8) = (   0.8333333   0.6735753   0.2552686  )
         9           Cu  tau(   9) = (   1.1666667   0.6735753   0.2552686  )
        10           Cu  tau(  10) = (   0.0000000   0.1924501   0.5274341  )
        11           Cu  tau(  11) = (   0.3333333   0.1924501   0.5274341  )
        12           Cu  tau(  12) = (   0.6666667   0.1924501   0.5274341  )
        13           Cu  tau(  13) = (   0.1666667   0.4811252   0.5274341  )
        14           Cu  tau(  14) = (   0.5000000   0.4811252   0.5274341  )
        15           Cu  tau(  15) = (   0.8333333   0.4811252   0.5274341  )
        16           Cu  tau(  16) = (   0.3333333   0.7698004   0.5274341  )
        17           Cu  tau(  17) = (   0.6666667   0.7698004   0.5274341  )
        18           Cu  tau(  18) = (   1.0000000   0.7698004   0.5274341  )
        19           Cu  tau(  19) = (   0.0000000   0.0000000   0.7995997  )
        20           Cu  tau(  20) = (   0.3333333   0.0000000   0.7995997  )
        21           Cu  tau(  21) = (   0.6666667   0.0000000   0.7995997  )
        22           Cu  tau(  22) = (   0.1666667   0.2886751   0.7995997  )
        23           Cu  tau(  23) = (   0.5000000   0.2886751   0.7995997  )
        24           Cu  tau(  24) = (   0.8333333   0.2886751   0.7995997  )
        25           Cu  tau(  25) = (   0.3333333   0.5773503   0.7995997  )
        26           Cu  tau(  26) = (   0.6666667   0.5773503   0.7995997  )
        27           Cu  tau(  27) = (   1.0000000   0.5773503   0.7995997  )
        28           Cu  tau(  28) = (   0.1666659   0.0962246   1.0691130  )
        29           Cu  tau(  29) = (   0.5000000   0.0962241   1.0691104  )
        30           Cu  tau(  30) = (   0.8333341   0.0962246   1.0691130  )
        31           Cu  tau(  31) = (   0.3333325   0.3849006   1.0691104  )
        32           Cu  tau(  32) = (   0.6666675   0.3849006   1.0691104  )
        33           Cu  tau(  33) = (   1.0000000   0.3849003   1.0691143  )
        34           Cu  tau(  34) = (   0.5000000   0.6735762   1.0691130  )
        35           Cu  tau(  35) = (   0.8333334   0.6735753   1.0691143  )
        36           Cu  tau(  36) = (   1.1666666   0.6735753   1.0691143  )
        37           Cu  tau(  37) = (   0.0000000   0.1924486   1.3387540  )
        38           Cu  tau(  38) = (   0.3333330   0.1924499   1.3387465  )
        39           Cu  tau(  39) = (   0.6666670   0.1924499   1.3387465  )
        40           Cu  tau(  40) = (   0.1666676   0.4811247   1.3387504  )
        41           Cu  tau(  41) = (   0.5000000   0.4811256   1.3387465  )
        42           Cu  tau(  42) = (   0.8333324   0.4811247   1.3387504  )
        43           Cu  tau(  43) = (   0.3333346   0.7698011   1.3387540  )
        44           Cu  tau(  44) = (   0.6666654   0.7698011   1.3387540  )
        45           Cu  tau(  45) = (   1.0000000   0.7698014   1.3387504  )
        46           Cu  tau(  46) = (   0.0000000   0.0000000   1.6083750  )
        47           Cu  tau(  47) = (   0.3333333   0.0000005   1.6083624  )
        48           Cu  tau(  48) = (   0.6666667   0.0000005   1.6083624  )
        49           Cu  tau(  49) = (   0.1666671   0.2886748   1.6083624  )
        50           Cu  tau(  50) = (   0.5000000   0.2886751   1.6083553  )
        51           Cu  tau(  51) = (   0.8333329   0.2886748   1.6083624  )
        52           Cu  tau(  52) = (   0.3333338   0.5773500   1.6083624  )
        53           Cu  tau(  53) = (   0.6666662   0.5773500   1.6083624  )
        54           Cu  tau(  54) = (   1.0000000   0.5773503   1.6083570  )
        55           C   tau(  55) = (   0.6567407   0.3959883   1.9656940  )
        56           C   tau(  56) = (   0.5046394   0.3028152   1.9656939  )
        57           C   tau(  57) = (   0.3478975   0.3879497   1.9656939  )
        58           C   tau(  58) = (   0.3432593   0.5662630   1.9656940  )
        59           C   tau(  59) = (   0.4953606   0.6594361   1.9656939  )
        60           C   tau(  60) = (   0.6521025   0.5743016   1.9656939  )
        61           H   tau(  61) = (   0.7789959   0.3295665   1.9657722  )
        62           H   tau(  62) = (   0.5082587   0.1637263   1.9657722  )
        63           H   tau(  63) = (   0.2292624   0.3152577   1.9657722  )
        64           H   tau(  64) = (   0.2210041   0.6326847   1.9657722  )
        65           H   tau(  65) = (   0.4917413   0.7985249   1.9657722  )
        66           H   tau(  66) = (   0.7707376   0.6469936   1.9657722  )

     number of k points=    10  gaussian smearing, width (Ry)=  0.0200
                       cart. coord. in units 2pi/alat
        k(    1) = (   0.0000000   0.0000000   0.0000000), wk =   0.1250000
        k(    2) = (   0.0000000   0.2886751   0.0000000), wk =   0.2500000
        k(    3) = (   0.0000000  -0.5773503   0.0000000), wk =   0.1250000
        k(    4) = (   0.2500000  -0.7216878   0.0000000), wk =   0.2500000
        k(    5) = (  -0.2500000   0.1443376   0.0000000), wk =   0.2500000
        k(    6) = (   0.2500000   0.1443376   0.0000000), wk =   0.2500000
        k(    7) = (   0.5000000  -0.2886751   0.0000000), wk =   0.1250000
        k(    8) = (  -0.5000000  -0.2886751   0.0000000), wk =   0.1250000
        k(    9) = (  -0.2500000  -0.7216878   0.0000000), wk =   0.2500000
        k(   10) = (  -0.5000000  -0.5773503   0.0000000), wk =   0.2500000

     Dense  grid:  2552337 G-vectors     FFT dimensions: ( 120, 120, 432)

     Smooth grid:   491295 G-vectors     FFT dimensions: (  72,  72, 243)

     Estimated max dynamical RAM per process >       1.14 GB

     Estimated total dynamical RAM >      18.26 GB

     Initial potential from superposition of free atoms
     Check: negative starting charge=   -0.000823

     starting charge 1001.99960, renormalised to 1056.00000

     negative rho (up, down):  8.677E-04 0.000E+00


     %%%%%%%%%%%%%%%%%%%%%%%%%%%%%%%%%%%%%%%%%%%%%%%%%%%%%%%%%%%%%%%%%%%%%%%%
     %                                                                      %
     % You are using vdW-DF, which was implemented by the Thonhauser group. %
     % Please cite the following two papers that made this development      %
     % possible and the two reviews that describe the various versions:     %
     %                                                                      %
     %   T. Thonhauser et al., PRL 115, 136402 (2015).                      %
     %   T. Thonhauser et al., PRB 76, 125112 (2007).                       %
     %   K. Berland et al., Rep. Prog. Phys. 78, 066501 (2015).             %
     %   D.C. Langreth et al., J. Phys.: Condens. Matter 21, 084203 (2009). %
     %                                                                      %
     %                                                                      %
     % If you are calculating the stress with vdW-DF, please also cite:     %
     %                                                                      %
     %   R. Sabatini et al., J. Phys.: Condens. Matter 24, 424209 (2012).   %
     %                                                                      %
     %%%%%%%%%%%%%%%%%%%%%%%%%%%%%%%%%%%%%%%%%%%%%%%%%%%%%%%%%%%%%%%%%%%%%%%%


     Starting wfcs are  732 randomized atomic wfcs

     total cpu time spent up to now is       65.5 secs

     Self-consistent Calculation

     iteration #  1     ecut=    50.00 Ry     beta= 0.30
     Davidson diagonalization with overlap
     ethr =  1.00E-02,  avg # of iterations =  6.0

     negative rho (up, down):  5.165E-04 0.000E+00

     total cpu time spent up to now is     1266.5 secs

     total energy              =  -18821.25618494 Ry
     Harris-Foulkes estimate   =  -22012.46748094 Ry
     estimated scf accuracy    <    6306.62132736 Ry

     iteration #  2     ecut=    50.00 Ry     beta= 0.30
     Davidson diagonalization with overlap
     ethr =  1.00E-02,  avg # of iterations = 18.1

     negative rho (up, down):  5.567E-04 0.000E+00

     total cpu time spent up to now is     3878.6 secs

     total energy              =  -19205.86701210 Ry
     Harris-Foulkes estimate   =  -39076.61342208 Ry
     estimated scf accuracy    <  277139.12524813 Ry

     iteration #  3     ecut=    50.00 Ry     beta= 0.30
     Davidson diagonalization with overlap
     ethr =  1.00E-02,  avg # of iterations =  7.0

     negative rho (up, down):  6.333E-04 0.000E+00

     total cpu time spent up to now is     5308.0 secs

     total energy              =  -21482.80274738 Ry
     Harris-Foulkes estimate   =  -23535.55954899 Ry
     estimated scf accuracy    <   58825.53325543 Ry

     iteration #  4     ecut=    50.00 Ry     beta= 0.30
     Davidson diagonalization with overlap
     ethr =  1.00E-02,  avg # of iterations =  7.9

     negative rho (up, down):  7.642E-04 0.000E+00

     total cpu time spent up to now is     6999.4 secs

     total energy              =  -21649.50288278 Ry
     Harris-Foulkes estimate   =  -22143.44082836 Ry
     estimated scf accuracy    <   15424.87603168 Ry

     iteration #  5     ecut=    50.00 Ry     beta= 0.30
     Davidson diagonalization with overlap
     ethr =  1.00E-02,  avg # of iterations =  6.1

     negative rho (up, down):  8.347E-04 0.000E+00

     total cpu time spent up to now is     8211.4 secs

     total energy              =  -21799.99746096 Ry
     Harris-Foulkes estimate   =  -22231.38922459 Ry
     estimated scf accuracy    <    8805.57285923 Ry

     iteration #  6     ecut=    50.00 Ry     beta= 0.30
     Davidson diagonalization with overlap
     ethr =  1.00E-02,  avg # of iterations =  7.3

     negative rho (up, down):  9.897E-04 0.000E+00

     total cpu time spent up to now is     9346.9 secs

     total energy              =  -21901.66424458 Ry
     Harris-Foulkes estimate   =  -21969.38852360 Ry
     estimated scf accuracy    <    2258.05311580 Ry

     iteration #  7     ecut=    50.00 Ry     beta= 0.30
     Davidson diagonalization with overlap
     ethr =  1.00E-02,  avg # of iterations =  2.4

     negative rho (up, down):  1.163E-03 0.000E+00

     total cpu time spent up to now is     9580.6 secs

     total energy              =  -21914.26255517 Ry
     Harris-Foulkes estimate   =  -21938.91245121 Ry
     estimated scf accuracy    <     254.94341568 Ry

     iteration #  8     ecut=    50.00 Ry     beta= 0.30
     Davidson diagonalization with overlap
     ethr =  1.00E-02,  avg # of iterations =  2.7

     negative rho (up, down):  1.288E-03 0.000E+00

     total cpu time spent up to now is     9813.5 secs

     total energy              =  -21917.32455857 Ry
     Harris-Foulkes estimate   =  -21921.08835799 Ry
     estimated scf accuracy    <     114.12892065 Ry

     iteration #  9     ecut=    50.00 Ry     beta= 0.30
     Davidson diagonalization with overlap
     ethr =  1.00E-02,  avg # of iterations =  1.0

     negative rho (up, down):  1.424E-03 0.000E+00

     total cpu time spent up to now is     9986.7 secs

     total energy              =  -21911.00621290 Ry
     Harris-Foulkes estimate   =  -21918.32983412 Ry
     estimated scf accuracy    <      94.01307508 Ry

     iteration # 10     ecut=    50.00 Ry     beta= 0.30
     Davidson diagonalization with overlap
     ethr =  8.90E-03,  avg # of iterations =  1.0

     negative rho (up, down):  1.818E-03 0.000E+00

     total cpu time spent up to now is    10161.7 secs

     total energy              =  -21892.53266172 Ry
     Harris-Foulkes estimate   =  -21912.79923898 Ry
     estimated scf accuracy    <     125.11070075 Ry

     iteration # 11     ecut=    50.00 Ry     beta= 0.30
     Davidson diagonalization with overlap
     ethr =  8.90E-03,  avg # of iterations =  4.7

     negative rho (up, down):  7.072E-07 0.000E+00

     total cpu time spent up to now is    10628.3 secs

     total energy              =  -21896.49482681 Ry
     Harris-Foulkes estimate   =  -21936.94820222 Ry
     estimated scf accuracy    <     913.56933291 Ry

     iteration # 12     ecut=    50.00 Ry     beta= 0.30
     Davidson diagonalization with overlap
     ethr =  8.90E-03,  avg # of iterations =  2.1

     negative rho (up, down):  6.078E-06 0.000E+00

     total cpu time spent up to now is    10845.8 secs

     total energy              =  -21897.09851166 Ry
     Harris-Foulkes estimate   =  -21911.89571435 Ry
     estimated scf accuracy    <     260.08628779 Ry

     iteration # 13     ecut=    50.00 Ry     beta= 0.30
     Davidson diagonalization with overlap
     ethr =  8.90E-03,  avg # of iterations =  2.2

     negative rho (up, down):  3.081E-06 0.000E+00

     total cpu time spent up to now is    11063.4 secs

     total energy              =  -21900.00287375 Ry
     Harris-Foulkes estimate   =  -21904.91664594 Ry
     estimated scf accuracy    <      24.26718699 Ry

     iteration # 14     ecut=    50.00 Ry     beta= 0.30
     Davidson diagonalization with overlap
     ethr =  2.30E-03,  avg # of iterations =  4.3

     negative rho (up, down):  1.104E-05 0.000E+00

     total cpu time spent up to now is    11416.5 secs

     total energy              =  -21903.67311899 Ry
     Harris-Foulkes estimate   =  -21905.88761880 Ry
     estimated scf accuracy    <      47.33682311 Ry

     iteration # 15     ecut=    50.00 Ry     beta= 0.30
     Davidson diagonalization with overlap
     ethr =  2.30E-03,  avg # of iterations =  1.5

     negative rho (up, down):  6.918E-06 0.000E+00

     total cpu time spent up to now is    11599.8 secs

     total energy              =  -21904.07238913 Ry
     Harris-Foulkes estimate   =  -21904.70069103 Ry
     estimated scf accuracy    <       9.75714252 Ry

     iteration # 16     ecut=    50.00 Ry     beta= 0.30
     Davidson diagonalization with overlap
     ethr =  9.24E-04,  avg # of iterations =  4.7

     negative rho (up, down):  3.556E-06 0.000E+00

     total cpu time spent up to now is    11894.0 secs

     total energy              =  -21903.82622333 Ry
     Harris-Foulkes estimate   =  -21904.41298916 Ry
     estimated scf accuracy    <       5.31681104 Ry

     iteration # 17     ecut=    50.00 Ry     beta= 0.30
     Davidson diagonalization with overlap
     ethr =  5.03E-04,  avg # of iterations =  6.0

     negative rho (up, down):  4.461E-06 0.000E+00

     total cpu time spent up to now is    12224.3 secs

     total energy              =  -21903.78830363 Ry
     Harris-Foulkes estimate   =  -21903.98217573 Ry
     estimated scf accuracy    <       3.38533789 Ry

     iteration # 18     ecut=    50.00 Ry     beta= 0.30
     Davidson diagonalization with overlap
     ethr =  3.21E-04,  avg # of iterations =  8.2

     negative rho (up, down):  4.688E-06 0.000E+00

     total cpu time spent up to now is    12643.7 secs

     total energy              =  -21903.71507401 Ry
     Harris-Foulkes estimate   =  -21903.89672635 Ry
     estimated scf accuracy    <       1.06173836 Ry

     iteration # 19     ecut=    50.00 Ry     beta= 0.30
     Davidson diagonalization with overlap
     ethr =  1.01E-04,  avg # of iterations =  5.4

     negative rho (up, down):  6.808E-06 0.000E+00

     total cpu time spent up to now is    12974.9 secs

     total energy              =  -21903.77027734 Ry
     Harris-Foulkes estimate   =  -21903.80097015 Ry
     estimated scf accuracy    <       0.36824859 Ry

     iteration # 20     ecut=    50.00 Ry     beta= 0.30
     Davidson diagonalization with overlap
     ethr =  3.49E-05,  avg # of iterations =  8.6

     negative rho (up, down):  5.270E-05 0.000E+00

     total cpu time spent up to now is    13402.8 secs

     total energy              =  -21903.69095048 Ry
     Harris-Foulkes estimate   =  -21903.78354446 Ry
     estimated scf accuracy    <       0.22000647 Ry

     iteration # 21     ecut=    50.00 Ry     beta= 0.30
     Davidson diagonalization with overlap
     ethr =  2.08E-05,  avg # of iterations =  6.9

     negative rho (up, down):  5.884E-05 0.000E+00

     total cpu time spent up to now is    14004.3 secs

     total energy              =  -21903.67430631 Ry
     Harris-Foulkes estimate   =  -21903.81271036 Ry
     estimated scf accuracy    <       1.19193220 Ry

     iteration # 22     ecut=    50.00 Ry     beta= 0.30
     Davidson diagonalization with overlap
     ethr =  2.08E-05,  avg # of iterations =  8.8

     negative rho (up, down):  9.548E-05 0.000E+00

     total cpu time spent up to now is    14491.1 secs

     total energy              =  -21903.73627226 Ry
     Harris-Foulkes estimate   =  -21903.75569237 Ry
     estimated scf accuracy    <       0.17656433 Ry

     iteration # 23     ecut=    50.00 Ry     beta= 0.30
     Davidson diagonalization with overlap
     ethr =  1.67E-05,  avg # of iterations =  8.3

     negative rho (up, down):  1.621E-04 0.000E+00

     total cpu time spent up to now is    14907.9 secs

     total energy              =  -21903.74061008 Ry
     Harris-Foulkes estimate   =  -21903.74637790 Ry
     estimated scf accuracy    <       0.04755993 Ry

     iteration # 24     ecut=    50.00 Ry     beta= 0.30
     Davidson diagonalization with overlap
     ethr =  4.50E-06,  avg # of iterations =  8.8

     negative rho (up, down):  3.210E-04 0.000E+00

     total cpu time spent up to now is    15383.9 secs

     total energy              =  -21903.74213976 Ry
     Harris-Foulkes estimate   =  -21903.74370168 Ry
     estimated scf accuracy    <       0.01038936 Ry

     iteration # 25     ecut=    50.00 Ry     beta= 0.30
     Davidson diagonalization with overlap
     ethr =  9.84E-07,  avg # of iterations =  6.7

     negative rho (up, down):  5.831E-04 0.000E+00

     total cpu time spent up to now is    15785.0 secs

     total energy              =  -21903.74272857 Ry
     Harris-Foulkes estimate   =  -21903.74310115 Ry
     estimated scf accuracy    <       0.00343470 Ry

     iteration # 26     ecut=    50.00 Ry     beta= 0.30
     Davidson diagonalization with overlap
     ethr =  3.25E-07,  avg # of iterations =  5.6

     negative rho (up, down):  6.604E-04 0.000E+00

     total cpu time spent up to now is    16143.6 secs

     total energy              =  -21903.74292991 Ry
     Harris-Foulkes estimate   =  -21903.74313182 Ry
     estimated scf accuracy    <       0.00137231 Ry

     iteration # 27     ecut=    50.00 Ry     beta= 0.30
     Davidson diagonalization with overlap
     ethr =  1.30E-07,  avg # of iterations =  6.4

     negative rho (up, down):  1.024E-03 0.000E+00

     total cpu time spent up to now is    16503.7 secs

     total energy              =  -21903.74311453 Ry
     Harris-Foulkes estimate   =  -21903.74318728 Ry
     estimated scf accuracy    <       0.00208491 Ry

     iteration # 28     ecut=    50.00 Ry     beta= 0.30
     Davidson diagonalization with overlap
     ethr =  1.30E-07,  avg # of iterations =  9.3

     negative rho (up, down):  1.481E-03 0.000E+00

     total cpu time spent up to now is    17005.7 secs

     total energy              =  -21903.74323079 Ry
     Harris-Foulkes estimate   =  -21903.74332260 Ry
     estimated scf accuracy    <       0.00206726 Ry

     iteration # 29     ecut=    50.00 Ry     beta= 0.30
     Davidson diagonalization with overlap
     ethr =  1.30E-07,  avg # of iterations =  6.1

     negative rho (up, down):  1.659E-03 0.000E+00

     total cpu time spent up to now is    17365.9 secs

     total energy              =  -21903.74330722 Ry
     Harris-Foulkes estimate   =  -21903.74333319 Ry
     estimated scf accuracy    <       0.00039252 Ry

     iteration # 30     ecut=    50.00 Ry     beta= 0.30
     Davidson diagonalization with overlap
     ethr =  3.72E-08,  avg # of iterations =  1.0

     negative rho (up, down):  2.109E-03 0.000E+00

     total cpu time spent up to now is    17543.3 secs

     total energy              =  -21903.74333662 Ry
     Harris-Foulkes estimate   =  -21903.74333034 Ry
     estimated scf accuracy    <       0.00003888 Ry

     iteration # 31     ecut=    50.00 Ry     beta= 0.30
     Davidson diagonalization with overlap
     ethr =  3.68E-09,  avg # of iterations =  3.8

     negative rho (up, down):  2.314E-03 0.000E+00

     total cpu time spent up to now is    17829.4 secs

     total energy              =  -21903.74333967 Ry
     Harris-Foulkes estimate   =  -21903.74334166 Ry
     estimated scf accuracy    <       0.00001659 Ry

     iteration # 32     ecut=    50.00 Ry     beta= 0.30
     Davidson diagonalization with overlap
     ethr =  1.57E-09,  avg # of iterations =  2.0

     negative rho (up, down):  2.515E-03 0.000E+00

     total cpu time spent up to now is    18042.4 secs

     total energy              =  -21903.74333983 Ry
     Harris-Foulkes estimate   =  -21903.74334224 Ry
     estimated scf accuracy    <       0.00001637 Ry

     iteration # 33     ecut=    50.00 Ry     beta= 0.30
     Davidson diagonalization with overlap
     ethr =  1.55E-09,  avg # of iterations =  2.2

     negative rho (up, down):  2.549E-03 0.000E+00

     total cpu time spent up to now is    18266.3 secs

     total energy              =  -21903.74334020 Ry
     Harris-Foulkes estimate   =  -21903.74334206 Ry
     estimated scf accuracy    <       0.00002240 Ry

     iteration # 34     ecut=    50.00 Ry     beta= 0.30
     Davidson diagonalization with overlap
     ethr =  1.55E-09,  avg # of iterations =  1.0

     negative rho (up, down):  2.627E-03 0.000E+00

     total cpu time spent up to now is    18443.0 secs

     total energy              =  -21903.74334029 Ry
     Harris-Foulkes estimate   =  -21903.74334151 Ry
     estimated scf accuracy    <       0.00001003 Ry

     iteration # 35     ecut=    50.00 Ry     beta= 0.30
     Davidson diagonalization with overlap
     ethr =  9.49E-10,  avg # of iterations =  1.0

     negative rho (up, down):  2.660E-03 0.000E+00

     total cpu time spent up to now is    18620.6 secs

     total energy              =  -21903.74334033 Ry
     Harris-Foulkes estimate   =  -21903.74334072 Ry
     estimated scf accuracy    <       0.00000097 Ry

     iteration # 36     ecut=    50.00 Ry     beta= 0.30
     Davidson diagonalization with overlap
     ethr =  9.16E-11,  avg # of iterations =  2.0

     negative rho (up, down):  2.673E-03 0.000E+00

     total cpu time spent up to now is    18826.9 secs

     total energy              =  -21903.74334026 Ry
     Harris-Foulkes estimate   =  -21903.74334043 Ry
     estimated scf accuracy    <       0.00000032 Ry

     iteration # 37     ecut=    50.00 Ry     beta= 0.30
     Davidson diagonalization with overlap
     ethr =  3.01E-11,  avg # of iterations =  2.0

     negative rho (up, down):  2.682E-03 0.000E+00

     total cpu time spent up to now is    19038.0 secs

     total energy              =  -21903.74334018 Ry
     Harris-Foulkes estimate   =  -21903.74334031 Ry
     estimated scf accuracy    <       0.00000027 Ry

     iteration # 38     ecut=    50.00 Ry     beta= 0.30
     Davidson diagonalization with overlap
     ethr =  2.55E-11,  avg # of iterations =  1.7

     negative rho (up, down):  2.683E-03 0.000E+00

     total cpu time spent up to now is    19237.7 secs

     total energy              =  -21903.74334018 Ry
     Harris-Foulkes estimate   =  -21903.74334022 Ry
     estimated scf accuracy    <       0.00000037 Ry

     iteration # 39     ecut=    50.00 Ry     beta= 0.30
     Davidson diagonalization with overlap
     ethr =  2.55E-11,  avg # of iterations =  1.0

     negative rho (up, down):  2.685E-03 0.000E+00

     total cpu time spent up to now is    19412.1 secs

     total energy              =  -21903.74334017 Ry
     Harris-Foulkes estimate   =  -21903.74334020 Ry
     estimated scf accuracy    <       0.00000007 Ry

     iteration # 40     ecut=    50.00 Ry     beta= 0.30
     Davidson diagonalization with overlap
     ethr =  6.33E-12,  avg # of iterations =  1.6

     negative rho (up, down):  2.684E-03 0.000E+00

     total cpu time spent up to now is    19600.7 secs

     total energy              =  -21903.74334018 Ry
     Harris-Foulkes estimate   =  -21903.74334018 Ry
     estimated scf accuracy    <       0.00000013 Ry

     iteration # 41     ecut=    50.00 Ry     beta= 0.30
     Davidson diagonalization with overlap
     ethr =  6.33E-12,  avg # of iterations =  2.0

     negative rho (up, down):  2.681E-03 0.000E+00

     total cpu time spent up to now is    19812.6 secs

     End of self-consistent calculation

          k = 0.0000 0.0000 0.0000 ( 61453 PWs)   bands (ev):

  -107.6942-107.6832-107.6785-107.6785-107.6772-107.6763-107.6759-107.6759
  -107.6743-107.6737-107.6736-107.6728-107.6728-107.6728-107.6719-107.6719
  -107.6714-107.6699-107.6696-107.6696-107.6685-107.6666-107.6665-107.6638
  -107.6632-107.6616-107.6615-107.6598-107.6576-107.6576-107.6575-107.6574
  -107.6561-107.6553-107.6507-107.6484-107.5473-107.5446-107.5446-107.4944
  -107.4919-107.4919-107.4684-107.4660-107.4659-107.4227-107.4182-107.4182
  -107.4180-107.4169-107.4169-107.4167-107.4146-107.4146 -65.1398 -65.1313
   -65.1248 -65.1248 -65.1241 -65.1241 -65.1230 -65.1188 -65.1187 -65.1181
   -65.1164 -65.1164 -65.1156 -65.1148 -65.1148 -65.1134 -65.1125 -65.1125
   -65.1121 -65.1117 -65.1083 -65.1083 -65.1052 -65.1035 -65.1033 -65.1033
   -65.1019 -65.1019 -65.1013 -65.1003 -65.1003 -65.0994 -65.0994 -65.0982
   -65.0982 -65.0964 -65.0964 -65.0960 -65.0937 -65.0937 -65.0930 -65.0918
   -65.0914 -65.0914 -65.0903 -65.0903 -65.0887 -65.0870 -65.0870 -65.0855
   -65.0846 -65.0845 -65.0844 -65.0841 -65.0841 -65.0830 -65.0782 -65.0771
   -65.0771 -65.0765 -65.0765 -65.0753 -65.0749 -65.0749 -65.0746 -65.0742
   -65.0742 -65.0722 -65.0721 -65.0721 -65.0709 -65.0709 -65.0709 -65.0692
   -65.0672 -65.0666 -65.0664 -65.0664 -65.0658 -65.0658 -65.0657 -65.0637
   -65.0636 -65.0633 -65.0624 -65.0624 -65.0613 -65.0601 -65.0599 -65.0599
   -65.0590 -65.0582 -65.0582 -65.0579 -65.0558 -65.0558 -65.0521 -65.0521
   -65.0518 -65.0501 -65.0498 -65.0498 -65.0479 -65.0479 -65.0462 -65.0462
   -65.0398 -65.0398 -64.9911 -64.9911 -64.9894 -64.9786 -64.9679 -64.9679
   -64.9440 -64.9414 -64.9414 -64.9413 -64.9389 -64.9389 -64.9232 -64.9190
   -64.9131 -64.9131 -64.9067 -64.9067 -64.8934 -64.8843 -64.8843 -64.8778
   -64.8773 -64.8773 -64.8769 -64.8769 -64.8762 -64.8762 -64.8747 -64.8746
   -64.8741 -64.8741 -64.8741 -64.8735 -64.8481 -64.8459 -64.8458 -64.8419
   -64.8419 -64.8418 -64.8415 -64.8415 -64.8404 -64.8293 -64.8293 -64.7944
   -64.7902 -64.7902 -64.7900 -64.7888 -64.7888 -64.7885 -64.7865 -64.7865
   -13.2092 -10.4410 -10.4407  -6.8220  -6.8215  -4.8915  -3.9512  -3.3423
    -3.2656  -2.9157  -2.4288  -2.2496  -2.2495  -1.5494  -1.0716  -0.9863
    -0.9863  -0.9844  -0.9844  -0.9840  -0.9654  -0.5909  -0.5909  -0.5860
    -0.5860  -0.5826  -0.5712  -0.3374  -0.3107  -0.3104  -0.1015  -0.1015
    -0.0874  -0.0853  -0.0801  -0.0801  -0.0601   0.3411   0.3411   0.3645
     0.3676   0.3676   0.3766   0.6836   0.6836   0.7136   0.7139   0.7139
     0.7213   0.8368   0.8368   0.8435   0.8455   0.8455   0.8482   0.8858
     0.8858   0.8925   0.8925   0.8932   0.8954   0.9261   0.9262   0.9400
     0.9400   0.9439   0.9442   1.0372   1.0372   1.0400   1.0410   1.0552
     1.0552   1.0596   1.0649   1.0649   1.0684   1.0839   1.0839   1.0860
     1.0861   1.1112   1.1112   1.1753   1.1753   1.1807   1.1807   1.2673
     1.2673   1.2733   1.2758   1.2758   1.2797   1.3233   1.3233   1.3623
     1.3624   1.5106   1.5106   1.5143   1.5154   1.5502   1.5502   1.6548
     1.6548   1.6633   1.6633   1.6703   1.6703   1.6718   1.6744   1.6979
     1.6979   1.7013   1.7014   1.7176   1.7320   1.7840   1.7840   1.7852
     1.7871   1.7941   1.7941   1.7972   1.7975   1.8295   1.8295   1.8494
     1.8661   1.8661   1.8662   1.8668   1.8668   1.8722   1.8848   1.8848
     1.9149   1.9149   1.9223   1.9244   1.9244   1.9252   1.9280   1.9280
     1.9461   1.9464   1.9464   1.9484   1.9493   1.9493   1.9550   1.9550
     1.9608   2.0116   2.0116   2.0162   2.0192   2.0634   2.0634   2.0636
     2.0721   2.0744   2.0744   2.0958   2.0958   2.1111   2.1111   2.1277
     2.1280   2.1432   2.1434   2.1434   2.1477   2.1485   2.1485   2.1493
     2.1493   2.3142   2.3142   2.3179   2.3252   2.3670   2.3670   2.3941
     2.3965   2.3965   2.4016   2.4016   2.4028   2.4311   2.4311   2.4425
     2.4497   2.4825   2.4825   2.4855   2.4855   2.4989   2.4989   2.5107
     2.5109   2.5734   2.5761   2.5761   2.5897   2.5897   2.5955   2.6006
     2.6006   2.6057   2.6057   2.6201   2.6231   2.6231   2.6251   2.6314
     2.6314   2.6320   2.6320   2.6336   2.6462   2.6462   2.7030   2.7030
     2.7715   2.7726   2.7726   2.7751   2.7755   2.7755   2.8247   2.8262
     2.8262   2.8277   2.8354   2.8354   2.8359   2.8371   2.8380   2.8380
     2.8417   2.8417   2.8819   2.8819   2.8957   2.8998   2.8998   2.9028
     2.9028   2.9043   2.9144   2.9144   2.9145   2.9163   2.9169   2.9169
     2.9277   2.9308   2.9308   2.9334   2.9334   2.9335   2.9377   2.9377
     2.9699   2.9768   2.9768   2.9845   2.9845   2.9863   2.9863   2.9909
     3.0096   3.0104   3.0304   3.0304   3.0305   3.0315   3.0315   3.0330
     3.0485   3.0485   3.0552   3.0552   3.0700   3.0700   3.0834   3.0868
     3.0885   3.0885   3.0897   3.0932   3.0932   3.0952   3.1148   3.1148
     3.1176   3.1269   3.1269   3.1350   3.1747   3.1752   3.1752   3.1788
     3.1788   3.1790   3.2104   3.2104   4.0079   4.0809   4.0810   4.0943
     4.1886   4.2057   4.2057   4.7094   5.4711   5.4711   5.5170   5.6104
     5.6561   5.6561   6.7059   6.7061   6.9740   7.2601   7.3676   7.4200
     7.4201   7.5075   7.5075   7.9739   7.9739   7.9752   7.9757   7.9930
     7.9930   8.1928   8.3632   8.3633   8.3900   8.3900   8.4388   8.7475
     8.7598   8.8177   8.8950   8.8950   8.9910   9.0133   9.0238   9.2841
     9.2841   9.3586   9.4764   9.6499   9.6499   9.6719   9.6719   9.9190
     9.9191   9.9272  10.0313  10.0378  10.5403  10.5652  10.7109  10.7109
    10.7765  10.7765  10.8308  10.8308  11.0038  11.0038  11.0730  11.0730
    11.0879  11.1415  11.2083  11.3521  11.3521  11.4642  11.4642  11.4785
    11.5600  11.6110  11.6110  11.7708  11.8293  11.8293  11.9043  11.9043
    11.9712  12.0166  12.0166  12.0582  12.0616  12.0616  12.1239  12.2345
    12.2345  12.2958  12.3321  12.4007  12.4007  12.6426  12.6427  12.8020
    12.8940  12.8942  12.9016  13.0591  13.0591  13.0862  13.0921  13.1486
    13.2333  13.2493

          k = 0.0000 0.2887 0.0000 ( 61417 PWs)   bands (ev):

  -107.6942-107.6828-107.6793-107.6786-107.6773-107.6761-107.6756-107.6755
  -107.6743-107.6737-107.6737-107.6729-107.6728-107.6725-107.6720-107.6719
  -107.6713-107.6700-107.6698-107.6697-107.6686-107.6665-107.6664-107.6637
  -107.6632-107.6616-107.6615-107.6600-107.6583-107.6581-107.6571-107.6568
  -107.6558-107.6555-107.6507-107.6484-107.5472-107.5446-107.5446-107.4945
  -107.4919-107.4918-107.4684-107.4659-107.4659-107.4223-107.4194-107.4184
  -107.4180-107.4167-107.4165-107.4160-107.4147-107.4147 -65.1388 -65.1317
   -65.1273 -65.1264 -65.1256 -65.1250 -65.1243 -65.1233 -65.1217 -65.1209
   -65.1195 -65.1191 -65.1183 -65.1176 -65.1150 -65.1135 -65.1123 -65.1108
   -65.1099 -65.1096 -65.1080 -65.1078 -65.1077 -65.1067 -65.1056 -65.1054
   -65.1047 -65.1032 -65.1003 -65.0998 -65.0989 -65.0975 -65.0975 -65.0969
   -65.0963 -65.0949 -65.0949 -65.0931 -65.0924 -65.0920 -65.0904 -65.0900
   -65.0888 -65.0870 -65.0869 -65.0860 -65.0858 -65.0856 -65.0844 -65.0841
   -65.0827 -65.0824 -65.0818 -65.0812 -65.0808 -65.0794 -65.0789 -65.0789
   -65.0772 -65.0769 -65.0766 -65.0763 -65.0757 -65.0751 -65.0737 -65.0733
   -65.0721 -65.0718 -65.0708 -65.0707 -65.0699 -65.0697 -65.0688 -65.0688
   -65.0685 -65.0680 -65.0675 -65.0669 -65.0663 -65.0656 -65.0653 -65.0649
   -65.0645 -65.0634 -65.0634 -65.0627 -65.0618 -65.0614 -65.0613 -65.0609
   -65.0601 -65.0586 -65.0583 -65.0575 -65.0572 -65.0550 -65.0550 -65.0547
   -65.0534 -65.0513 -65.0511 -65.0503 -65.0493 -65.0490 -65.0471 -65.0469
   -65.0438 -65.0407 -64.9925 -64.9920 -64.9906 -64.9785 -64.9673 -64.9655
   -64.9438 -64.9415 -64.9410 -64.9400 -64.9388 -64.9388 -64.9247 -64.9176
   -64.9136 -64.9125 -64.9064 -64.9044 -64.8943 -64.8884 -64.8868 -64.8848
   -64.8831 -64.8827 -64.8816 -64.8813 -64.8769 -64.8747 -64.8746 -64.8699
   -64.8695 -64.8642 -64.8637 -64.8610 -64.8481 -64.8458 -64.8458 -64.8457
   -64.8455 -64.8445 -64.8417 -64.8411 -64.8374 -64.8335 -64.8304 -64.7940
   -64.7912 -64.7904 -64.7899 -64.7887 -64.7885 -64.7879 -64.7866 -64.7866
   -13.2084 -10.4445 -10.4415  -6.8247  -6.8173  -4.8633  -3.7382  -3.2374
    -3.1353  -2.9196  -2.3209  -2.2581  -2.2224  -2.1309  -1.6250  -1.4694
    -1.4230  -1.3957  -0.9795  -0.9462  -0.9070  -0.7627  -0.3697  -0.3686
    -0.3634  -0.3176  -0.2835  -0.2609  -0.1842  -0.1555  -0.0837  -0.0833
     0.0494   0.0808   0.0928   0.1872   0.1879   0.1907   0.3447   0.3717
     0.3919   0.4569   0.4586   0.6237   0.6503   0.6852   0.6858   0.6959
     0.7218   0.7220   0.7283   0.7378   0.7680   0.7849   0.7906   0.7923
     0.8011   0.8025   0.8450   0.8454   0.8773   0.8788   0.9027   0.9098
     0.9115   0.9564   0.9658   0.9784   0.9785   0.9940   0.9965   1.0072
     1.0090   1.0251   1.0268   1.0850   1.1311   1.1413   1.1518   1.1534
     1.1656   1.1842   1.1908   1.2070   1.2096   1.2493   1.2501   1.2658
     1.2795   1.3010   1.3381   1.3382   1.3577   1.3747   1.3898   1.3929
     1.4250   1.4288   1.4442   1.4649   1.4758   1.4776   1.5057   1.5412
     1.5429   1.5559   1.5597   1.5719   1.6016   1.6194   1.6222   1.6321
     1.6357   1.6473   1.6824   1.6848   1.7127   1.7425   1.7604   1.7658
     1.7662   1.7793   1.7809   1.7846   1.8142   1.8220   1.8269   1.8387
     1.8394   1.8497   1.8523   1.8570   1.8725   1.8761   1.8807   1.8995
     1.9111   1.9141   1.9153   1.9175   1.9235   1.9317   1.9363   1.9436
     1.9446   1.9512   1.9548   1.9553   1.9781   1.9840   1.9844   1.9943
     1.9947   2.0115   2.0119   2.0168   2.0184   2.0282   2.0300   2.0465
     2.0695   2.0724   2.0824   2.0941   2.0947   2.0972   2.0976   2.1062
     2.1214   2.1247   2.1381   2.1477   2.1518   2.1614   2.1782   2.1789
     2.1941   2.1975   2.2057   2.2107   2.2294   2.2414   2.2417   2.2617
     2.2809   2.2810   2.3111   2.3294   2.3318   2.3344   2.3385   2.3423
     2.3889   2.4133   2.4286   2.4329   2.4378   2.4428   2.4593   2.4610
     2.4907   2.4918   2.5018   2.5042   2.5042   2.5088   2.5181   2.5214
     2.5678   2.5732   2.5785   2.5799   2.5851   2.6085   2.6124   2.6131
     2.6183   2.6195   2.6476   2.6616   2.6635   2.6658   2.6732   2.6786
     2.6910   2.6916   2.7058   2.7113   2.7179   2.7183   2.7285   2.7324
     2.7416   2.7494   2.7993   2.8071   2.8100   2.8318   2.8347   2.8478
     2.8539   2.8545   2.8562   2.8564   2.8647   2.8717   2.8740   2.8835
     2.8861   2.8935   2.8963   2.9233   2.9403   2.9404   2.9421   2.9463
     2.9543   2.9593   2.9690   2.9758   2.9844   2.9851   3.0246   3.0249
     3.0347   3.0354   3.0389   3.0479   3.0502   3.0567   3.0584   3.0609
     3.0642   3.0655   3.0755   3.0757   3.0823   3.0836   3.0908   3.0957
     3.1146   3.1219   3.1233   3.1253   3.1267   3.1292   3.1300   3.1315
     3.1544   3.1631   3.1755   3.1775   3.1776   3.1891   3.1943   3.2043
     3.2264   3.2897   3.3535   3.4056   3.4361   3.4386   3.5429   3.5966
     3.5979   3.8489   3.8871   3.9013   3.9136   3.9719   4.2086   4.4757
     4.6309   4.8601   4.8775   5.1018   5.1942   5.2369   5.2958   5.9656
     5.9691   6.1881   6.2026   6.3376   6.3568   6.3599   6.5255   6.7520
     6.7931   6.9680   7.0145   7.0724   7.1697   7.2853   7.5838   7.8643
     7.8898   7.9098   8.0528   8.1617   8.3017   8.3563   8.3802   8.4657
     8.5599   8.7291   8.8339   8.8391   8.9667   9.0088   9.3072   9.3771
     9.3870   9.4903   9.5711   9.7208   9.8162   9.8774   9.9004  10.0085
    10.0488  10.0997  10.1494  10.2312  10.2862  10.4128  10.5301  10.5386
    10.5794  10.5879  10.6116  10.7268  10.7651  10.8090  10.8328  10.8650
    11.0072  11.0507  11.0608  11.1249  11.1479  11.2925  11.4680  11.4824
    11.5211  11.5671  11.6278  11.7380  11.7879  11.8425  11.8660  12.0303
    12.0829  12.1629  12.2324  12.3106  12.4071  12.4321  12.5216  12.5341
    12.5854  12.6504  12.7313  12.7859  12.8391  12.8442  12.9325  12.9510
    12.9985  13.0868  13.1416  13.1562  13.2235  13.2960  13.3646  13.4038
    13.4620  13.5301

          k = 0.0000-0.5774 0.0000 ( 61408 PWs)   bands (ev):

  -107.6942-107.6821-107.6803-107.6788-107.6774-107.6758-107.6753-107.6751
  -107.6748-107.6736-107.6736-107.6732-107.6729-107.6724-107.6719-107.6718
  -107.6714-107.6705-107.6697-107.6697-107.6686-107.6664-107.6662-107.6637
  -107.6630-107.6616-107.6615-107.6601-107.6587-107.6583-107.6570-107.6561
  -107.6560-107.6556-107.6507-107.6484-107.5472-107.5447-107.5446-107.4945
  -107.4919-107.4918-107.4685-107.4659-107.4659-107.4214-107.4206-107.4186
  -107.4182-107.4163-107.4161-107.4157-107.4149-107.4148 -65.1375 -65.1323
   -65.1302 -65.1291 -65.1276 -65.1254 -65.1246 -65.1238 -65.1229 -65.1222
   -65.1219 -65.1213 -65.1208 -65.1197 -65.1173 -65.1149 -65.1114 -65.1110
   -65.1108 -65.1098 -65.1092 -65.1088 -65.1086 -65.1082 -65.1068 -65.1054
   -65.1051 -65.1037 -65.1002 -65.0984 -65.0975 -65.0975 -65.0970 -65.0957
   -65.0952 -65.0925 -65.0911 -65.0904 -65.0887 -65.0881 -65.0881 -65.0878
   -65.0871 -65.0862 -65.0857 -65.0853 -65.0848 -65.0833 -65.0830 -65.0817
   -65.0811 -65.0805 -65.0805 -65.0801 -65.0793 -65.0789 -65.0779 -65.0773
   -65.0757 -65.0752 -65.0745 -65.0744 -65.0737 -65.0733 -65.0731 -65.0730
   -65.0726 -65.0722 -65.0718 -65.0707 -65.0702 -65.0697 -65.0688 -65.0685
   -65.0683 -65.0669 -65.0669 -65.0661 -65.0659 -65.0656 -65.0656 -65.0646
   -65.0642 -65.0634 -65.0633 -65.0630 -65.0629 -65.0623 -65.0615 -65.0614
   -65.0608 -65.0602 -65.0598 -65.0583 -65.0574 -65.0573 -65.0569 -65.0551
   -65.0547 -65.0543 -65.0528 -65.0526 -65.0518 -65.0507 -65.0505 -65.0481
   -65.0445 -65.0425 -64.9941 -64.9929 -64.9913 -64.9785 -64.9667 -64.9634
   -64.9454 -64.9413 -64.9390 -64.9390 -64.9383 -64.9382 -64.9262 -64.9186
   -64.9141 -64.9109 -64.9043 -64.9016 -64.8960 -64.8926 -64.8903 -64.8853
   -64.8853 -64.8849 -64.8844 -64.8840 -64.8769 -64.8747 -64.8746 -64.8662
   -64.8658 -64.8540 -64.8538 -64.8536 -64.8530 -64.8481 -64.8458 -64.8458
   -64.8457 -64.8456 -64.8448 -64.8424 -64.8422 -64.8338 -64.8329 -64.7932
   -64.7923 -64.7905 -64.7901 -64.7883 -64.7883 -64.7878 -64.7868 -64.7866
   -13.2076 -10.4480 -10.4422  -6.8280  -6.8125  -4.8341  -3.2089  -3.1148
    -3.1127  -2.9235  -2.5408  -2.5397  -2.3377  -2.2666  -1.7680  -1.6072
    -1.5797  -1.5785  -1.2896  -1.0756  -1.0472  -0.5611  -0.4920  -0.3921
    -0.3662  -0.3082  -0.3072   0.0335   0.1917   0.2183   0.2357   0.2370
     0.2383   0.2399   0.2429   0.3209   0.3655   0.4012   0.4016   0.4153
     0.4174   0.4343   0.4348   0.4366   0.4368   0.4868   0.4869   0.4894
     0.4895   0.6194   0.6438   0.6457   0.6530   0.6534   0.6622   0.7310
     0.8253   0.8307   0.8348   0.8353   0.8363   0.8442   0.8706   0.8717
     0.8772   0.8830   0.8831   1.0007   1.0019   1.0080   1.0080   1.0207
     1.0313   1.0889   1.0914   1.1081   1.1199   1.1204   1.1657   1.1681
     1.1941   1.2081   1.2140   1.2154   1.2706   1.2712   1.2800   1.2991
     1.3380   1.3395   1.3742   1.3747   1.3830   1.3862   1.3941   1.4128
     1.4135   1.4210   1.4457   1.4879   1.4894   1.5133   1.5165   1.5391
     1.5418   1.5530   1.5592   1.5674   1.5677   1.5747   1.5758   1.6224
     1.6240   1.6257   1.6286   1.6322   1.6446   1.6860   1.6883   1.6961
     1.6965   1.7016   1.7048   1.7074   1.7104   1.7237   1.7482   1.7894
     1.8011   1.8032   1.8058   1.8153   1.8317   1.8508   1.8520   1.8538
     1.8556   1.8569   1.8652   1.8957   1.9034   1.9107   1.9205   1.9227
     1.9303   1.9312   1.9556   1.9615   1.9658   1.9664   1.9918   1.9935
     1.9941   2.0008   2.0022   2.0174   2.0187   2.0237   2.0273   2.0465
     2.0525   2.0780   2.0922   2.0945   2.1424   2.1446   2.1537   2.1553
     2.1571   2.1573   2.1581   2.1600   2.1634   2.1705   2.1801   2.1824
     2.1873   2.1979   2.2002   2.2039   2.2043   2.2087   2.2091   2.2800
     2.2803   2.2861   2.2984   2.3417   2.3424   2.3514   2.3553   2.3618
     2.3682   2.3693   2.3750   2.3812   2.3881   2.3952   2.4110   2.4295
     2.4352   2.4383   2.4422   2.4462   2.4580   2.4698   2.4707   2.4722
     2.4753   2.4887   2.4890   2.4932   2.4969   2.5121   2.5124   2.5970
     2.5994   2.6224   2.6255   2.6468   2.6477   2.6536   2.6555   2.6784
     2.6804   2.6937   2.7095   2.7143   2.7260   2.7268   2.7329   2.7473
     2.7487   2.7623   2.7649   2.7674   2.7704   2.7816   2.7942   2.7958
     2.8040   2.8061   2.8185   2.8541   2.8542   2.8597   2.8606   2.8699
     2.8704   2.8815   2.8894   2.9136   2.9171   2.9328   2.9371   2.9524
     2.9528   2.9713   2.9801   2.9909   2.9964   3.0296   3.0301   3.0502
     3.0585   3.0625   3.0670   3.0847   3.0894   3.0905   3.0915   3.0920
     3.0936   3.1013   3.1241   3.1246   3.1251   3.1253   3.1260   3.1394
     3.1424   3.1469   3.1570   3.1645   3.1755   3.1788   3.1837   3.1862
     3.1866   3.2074   3.2145   3.2298   3.2324   3.2423   3.2433   3.2465
     3.2476   3.2997   3.3696   3.8606   3.9202   3.9344   3.9677   4.3947
     4.4520   4.4535   4.4535   4.4546   4.7075   4.7156   4.7180   4.7195
     5.0243   5.0606   5.1273   5.1942   5.2282   5.2574   5.2832   5.3098
     5.3474   5.5476   5.8776   6.0815   6.1217   6.1443   6.2200   6.2520
     6.2631   6.3074   6.3225   6.6702   6.8246   6.8705   6.9934   7.5432
     7.5629   7.5753   7.7877   7.8092   7.9889   8.3434   8.4096   8.4293
     8.6815   8.6927   8.7050   8.7542   8.9360   8.9994   9.0397   9.2171
     9.3238   9.3430   9.3494   9.3662   9.4527   9.5423   9.6232   9.7522
     9.8220   9.9308   9.9587  10.0205  10.0684  10.2447  10.3133  10.4050
    10.4116  10.5196  10.6126  10.6494  10.6698  10.7824  10.9022  11.0244
    11.0549  11.1052  11.2501  11.2801  11.2893  11.4354  11.4502  11.5073
    11.7201  11.7546  11.8271  12.0215  12.1522  12.1948  12.3145  12.3716
    12.3841  12.4010  12.4418  12.6818  12.6911  12.8170  12.8280  12.9164
    12.9556  13.0456  13.1295  13.1438  13.2281  13.3217  13.3261  13.3453
    13.3913  13.4026  13.4111  13.4457  13.6058  13.6467  13.6553  13.7098
    13.8547  13.8567

          k = 0.2500-0.7217 0.0000 ( 61343 PWs)   bands (ev):

  -107.6941-107.6822-107.6799-107.6794-107.6771-107.6759-107.6752-107.6751
  -107.6745-107.6740-107.6736-107.6733-107.6725-107.6724-107.6720-107.6718
  -107.6715-107.6703-107.6700-107.6697-107.6686-107.6664-107.6662-107.6637
  -107.6630-107.6616-107.6615-107.6600-107.6590-107.6581-107.6567-107.6564
  -107.6559-107.6556-107.6507-107.6484-107.5472-107.5447-107.5446-107.4945
  -107.4919-107.4918-107.4685-107.4660-107.4659-107.4215-107.4201-107.4196
  -107.4175-107.4165-107.4161-107.4158-107.4150-107.4147 -65.1376 -65.1319
   -65.1291 -65.1287 -65.1275 -65.1274 -65.1264 -65.1251 -65.1241 -65.1219
   -65.1215 -65.1207 -65.1177 -65.1169 -65.1158 -65.1149 -65.1146 -65.1134
   -65.1117 -65.1096 -65.1089 -65.1085 -65.1078 -65.1069 -65.1060 -65.1058
   -65.1044 -65.1034 -65.1017 -65.1007 -65.0987 -65.0964 -65.0959 -65.0951
   -65.0935 -65.0928 -65.0922 -65.0911 -65.0906 -65.0889 -65.0884 -65.0877
   -65.0873 -65.0865 -65.0855 -65.0852 -65.0834 -65.0823 -65.0818 -65.0813
   -65.0809 -65.0805 -65.0803 -65.0793 -65.0790 -65.0784 -65.0779 -65.0768
   -65.0765 -65.0758 -65.0751 -65.0750 -65.0744 -65.0735 -65.0727 -65.0724
   -65.0718 -65.0712 -65.0709 -65.0705 -65.0700 -65.0694 -65.0689 -65.0687
   -65.0685 -65.0677 -65.0672 -65.0668 -65.0663 -65.0654 -65.0653 -65.0649
   -65.0646 -65.0643 -65.0636 -65.0630 -65.0628 -65.0623 -65.0622 -65.0614
   -65.0610 -65.0598 -65.0592 -65.0584 -65.0577 -65.0569 -65.0568 -65.0565
   -65.0552 -65.0537 -65.0535 -65.0525 -65.0513 -65.0495 -65.0484 -65.0471
   -65.0464 -65.0428 -64.9937 -64.9929 -64.9919 -64.9782 -64.9668 -64.9635
   -64.9442 -64.9413 -64.9404 -64.9389 -64.9388 -64.9380 -64.9260 -64.9175
   -64.9150 -64.9092 -64.9059 -64.9024 -64.8956 -64.8906 -64.8901 -64.8892
   -64.8875 -64.8859 -64.8809 -64.8771 -64.8769 -64.8767 -64.8747 -64.8746
   -64.8575 -64.8555 -64.8545 -64.8543 -64.8490 -64.8486 -64.8481 -64.8481
   -64.8475 -64.8459 -64.8458 -64.8413 -64.8368 -64.8365 -64.8326 -64.7933
   -64.7919 -64.7913 -64.7895 -64.7884 -64.7882 -64.7879 -64.7868 -64.7866
   -13.2076 -10.4466 -10.4437  -6.8241  -6.8164  -4.8344  -3.3191  -3.2083
    -2.9233  -2.7319  -2.5182  -2.5137  -2.3345  -2.2921  -1.9867  -1.9365
    -1.8416  -1.4126  -1.0912  -1.0068  -0.6491  -0.5023  -0.4989  -0.3775
    -0.3296  -0.1574  -0.1514  -0.1163  -0.0874   0.0905   0.0910   0.1002
     0.2533   0.2622   0.2859   0.2866   0.3004   0.3521   0.3592   0.3611
     0.3809   0.4787   0.4803   0.4814   0.4826   0.5326   0.5506   0.6118
     0.6226   0.6314   0.6428   0.6751   0.6755   0.6761   0.6925   0.6934
     0.7321   0.7406   0.7858   0.7905   0.8164   0.8171   0.8493   0.8499
     0.8566   0.9047   0.9090   0.9364   0.9626   0.9842   0.9855   1.0359
     1.0568   1.1052   1.1187   1.1271   1.1349   1.1456   1.1681   1.1862
     1.2225   1.2387   1.2394   1.2421   1.2644   1.2875   1.2910   1.3123
     1.3158   1.3655   1.3676   1.3842   1.3895   1.4055   1.4092   1.4128
     1.4178   1.4645   1.4687   1.4705   1.4724   1.4840   1.4929   1.5087
     1.5116   1.5253   1.5278   1.5559   1.5621   1.5682   1.5794   1.5908
     1.5964   1.6214   1.6629   1.6669   1.6673   1.6741   1.6813   1.6952
     1.7141   1.7219   1.7378   1.7582   1.7606   1.7677   1.7701   1.7737
     1.7961   1.8085   1.8093   1.8119   1.8146   1.8509   1.8576   1.8611
     1.8660   1.8699   1.8763   1.8915   1.8934   1.9122   1.9138   1.9195
     1.9211   1.9365   1.9507   1.9536   1.9819   1.9884   1.9914   1.9986
     2.0032   2.0074   2.0158   2.0173   2.0284   2.0292   2.0365   2.0422
     2.0443   2.0533   2.0585   2.0649   2.0864   2.0928   2.0981   2.1042
     2.1255   2.1267   2.1282   2.1324   2.1350   2.1406   2.1409   2.1443
     2.1451   2.1502   2.2065   2.2073   2.2586   2.2720   2.2744   2.2763
     2.2812   2.2850   2.3002   2.3041   2.3290   2.3313   2.3426   2.3549
     2.3702   2.3730   2.4080   2.4109   2.4153   2.4380   2.4406   2.4433
     2.4449   2.4460   2.4514   2.4517   2.4551   2.4646   2.4829   2.4860
     2.5024   2.5201   2.5307   2.5320   2.5380   2.5471   2.5573   2.5764
     2.5794   2.5884   2.5981   2.6066   2.6132   2.6288   2.6496   2.6502
     2.6609   2.6657   2.6817   2.6923   2.6980   2.7173   2.7324   2.7389
     2.7498   2.7538   2.7595   2.7741   2.7841   2.7942   2.8044   2.8070
     2.8104   2.8138   2.8165   2.8182   2.8283   2.8361   2.8584   2.8764
     2.8928   2.8974   2.9003   2.9154   2.9453   2.9483   2.9618   2.9724
     2.9913   3.0085   3.0129   3.0159   3.0198   3.0236   3.0287   3.0607
     3.0636   3.0666   3.0683   3.0736   3.0819   3.0836   3.0870   3.0884
     3.0939   3.0953   3.0980   3.0997   3.1044   3.1137   3.1169   3.1258
     3.1284   3.1398   3.1407   3.1511   3.1629   3.1670   3.1755   3.1837
     3.1851   3.2011   3.2133   3.2191   3.2426   3.2624   3.2642   3.4313
     3.4596   3.5300   3.5310   3.6229   3.6278   3.7700   3.9473   3.9617
     4.3471   4.3995   4.4341   4.4382   4.4566   4.7101   4.7962   4.8299
     4.8405   4.8508   5.0508   5.2671   5.3003   5.3108   5.7641   5.7820
     5.8313   5.9818   6.0052   6.0332   6.0581   6.2095   6.2123   6.2562
     6.3605   6.6444   6.6802   6.7720   6.9202   6.9646   7.0543   7.1589
     7.1766   7.2253   7.2699   7.5126   7.6986   7.7455   8.0292   8.0809
     8.4572   8.6147   8.6231   8.7265   8.7471   8.8744   9.1405   9.1880
     9.2791   9.3657   9.4043   9.5339   9.5778   9.6039   9.7576   9.7897
     9.8341  10.0182  10.1056  10.1600  10.2043  10.4061  10.4166  10.5275
    10.5598  10.6568  10.8440  10.8999  10.9898  11.0304  11.1065  11.1822
    11.2147  11.3067  11.4184  11.5854  11.6019  11.6480  11.6714  11.7424
    11.8051  11.9027  11.9346  11.9529  12.0102  12.0907  12.1476  12.2329
    12.3133  12.3847  12.4917  12.5169  12.5665  12.6460  12.6950  12.7397
    12.7526  12.8098  12.8548  12.9098  12.9716  13.1010  13.1563  13.2019
    13.3236  13.3644  13.3967  13.4270  13.5276  13.5870  13.6476  13.6994
    13.7452  13.7678

          k =-0.2500 0.1443 0.0000 ( 61417 PWs)   bands (ev):

  -107.6942-107.6828-107.6793-107.6787-107.6773-107.6761-107.6756-107.6755
  -107.6743-107.6737-107.6737-107.6729-107.6728-107.6725-107.6720-107.6719
  -107.6713-107.6700-107.6698-107.6697-107.6686-107.6665-107.6664-107.6637
  -107.6632-107.6616-107.6615-107.6600-107.6583-107.6581-107.6571-107.6568
  -107.6558-107.6555-107.6507-107.6484-107.5472-107.5447-107.5446-107.4945
  -107.4919-107.4919-107.4684-107.4660-107.4659-107.4223-107.4194-107.4184
  -107.4180-107.4167-107.4165-107.4160-107.4147-107.4147 -65.1388 -65.1317
   -65.1274 -65.1264 -65.1256 -65.1250 -65.1243 -65.1233 -65.1217 -65.1209
   -65.1195 -65.1191 -65.1183 -65.1176 -65.1150 -65.1135 -65.1123 -65.1108
   -65.1099 -65.1096 -65.1080 -65.1078 -65.1077 -65.1067 -65.1056 -65.1054
   -65.1047 -65.1032 -65.1003 -65.0998 -65.0989 -65.0975 -65.0975 -65.0969
   -65.0963 -65.0949 -65.0949 -65.0931 -65.0924 -65.0920 -65.0904 -65.0900
   -65.0888 -65.0870 -65.0869 -65.0860 -65.0858 -65.0856 -65.0844 -65.0841
   -65.0827 -65.0824 -65.0818 -65.0812 -65.0808 -65.0794 -65.0789 -65.0789
   -65.0772 -65.0769 -65.0766 -65.0763 -65.0757 -65.0751 -65.0737 -65.0733
   -65.0721 -65.0718 -65.0708 -65.0707 -65.0699 -65.0697 -65.0688 -65.0688
   -65.0685 -65.0680 -65.0675 -65.0669 -65.0663 -65.0656 -65.0653 -65.0649
   -65.0645 -65.0634 -65.0634 -65.0627 -65.0618 -65.0614 -65.0613 -65.0609
   -65.0601 -65.0586 -65.0583 -65.0575 -65.0572 -65.0550 -65.0550 -65.0547
   -65.0534 -65.0513 -65.0511 -65.0503 -65.0493 -65.0490 -65.0471 -65.0469
   -65.0438 -65.0407 -64.9925 -64.9920 -64.9906 -64.9785 -64.9673 -64.9655
   -64.9438 -64.9415 -64.9410 -64.9400 -64.9388 -64.9388 -64.9247 -64.9176
   -64.9136 -64.9125 -64.9064 -64.9044 -64.8943 -64.8884 -64.8868 -64.8848
   -64.8831 -64.8827 -64.8816 -64.8813 -64.8769 -64.8747 -64.8746 -64.8699
   -64.8695 -64.8642 -64.8637 -64.8610 -64.8481 -64.8459 -64.8458 -64.8457
   -64.8455 -64.8445 -64.8417 -64.8411 -64.8374 -64.8335 -64.8304 -64.7940
   -64.7912 -64.7904 -64.7900 -64.7887 -64.7885 -64.7879 -64.7866 -64.7865
   -13.2084 -10.4443 -10.4417  -6.8252  -6.8168  -4.8633  -3.7382  -3.2374
    -3.1353  -2.9195  -2.3208  -2.2582  -2.2224  -2.1309  -1.6250  -1.4694
    -1.4230  -1.3957  -0.9795  -0.9462  -0.9070  -0.7627  -0.3697  -0.3685
    -0.3633  -0.3177  -0.2836  -0.2609  -0.1842  -0.1555  -0.0837  -0.0833
     0.0494   0.0808   0.0928   0.1872   0.1879   0.1907   0.3447   0.3717
     0.3919   0.4569   0.4586   0.6237   0.6503   0.6852   0.6858   0.6959
     0.7218   0.7220   0.7283   0.7378   0.7680   0.7849   0.7906   0.7923
     0.8011   0.8025   0.8450   0.8454   0.8773   0.8788   0.9027   0.9098
     0.9115   0.9564   0.9658   0.9784   0.9785   0.9940   0.9965   1.0072
     1.0090   1.0251   1.0268   1.0850   1.1311   1.1413   1.1518   1.1534
     1.1656   1.1841   1.1908   1.2070   1.2096   1.2493   1.2501   1.2658
     1.2795   1.3010   1.3381   1.3382   1.3577   1.3747   1.3898   1.3929
     1.4250   1.4288   1.4442   1.4649   1.4758   1.4776   1.5057   1.5412
     1.5429   1.5559   1.5597   1.5719   1.6016   1.6194   1.6222   1.6321
     1.6357   1.6473   1.6824   1.6848   1.7127   1.7425   1.7604   1.7658
     1.7662   1.7793   1.7809   1.7846   1.8142   1.8220   1.8269   1.8387
     1.8394   1.8497   1.8523   1.8570   1.8725   1.8761   1.8807   1.8995
     1.9111   1.9141   1.9153   1.9175   1.9235   1.9317   1.9363   1.9436
     1.9446   1.9512   1.9548   1.9553   1.9781   1.9840   1.9844   1.9943
     1.9947   2.0115   2.0119   2.0168   2.0184   2.0282   2.0300   2.0465
     2.0695   2.0724   2.0824   2.0941   2.0947   2.0972   2.0976   2.1062
     2.1214   2.1247   2.1381   2.1477   2.1518   2.1614   2.1782   2.1789
     2.1941   2.1975   2.2057   2.2107   2.2294   2.2414   2.2417   2.2617
     2.2809   2.2810   2.3111   2.3294   2.3318   2.3345   2.3385   2.3423
     2.3889   2.4133   2.4286   2.4329   2.4378   2.4428   2.4593   2.4610
     2.4907   2.4918   2.5019   2.5042   2.5042   2.5088   2.5181   2.5214
     2.5678   2.5732   2.5785   2.5799   2.5851   2.6085   2.6124   2.6131
     2.6183   2.6195   2.6476   2.6616   2.6635   2.6658   2.6733   2.6786
     2.6910   2.6916   2.7058   2.7113   2.7179   2.7183   2.7285   2.7324
     2.7416   2.7494   2.7993   2.8071   2.8100   2.8318   2.8347   2.8478
     2.8539   2.8545   2.8562   2.8564   2.8647   2.8717   2.8740   2.8835
     2.8861   2.8935   2.8963   2.9233   2.9403   2.9404   2.9421   2.9463
     2.9543   2.9593   2.9690   2.9758   2.9844   2.9851   3.0246   3.0249
     3.0347   3.0354   3.0389   3.0479   3.0502   3.0567   3.0584   3.0609
     3.0642   3.0655   3.0755   3.0757   3.0823   3.0836   3.0908   3.0957
     3.1146   3.1219   3.1233   3.1253   3.1267   3.1292   3.1300   3.1315
     3.1544   3.1631   3.1755   3.1775   3.1776   3.1891   3.1943   3.2043
     3.2264   3.2897   3.3535   3.4056   3.4361   3.4386   3.5429   3.5966
     3.5979   3.8489   3.8871   3.9013   3.9136   3.9719   4.2086   4.4757
     4.6309   4.8601   4.8775   5.1018   5.1942   5.2369   5.2958   5.9656
     5.9691   6.1881   6.2026   6.3376   6.3568   6.3599   6.5255   6.7520
     6.7932   6.9680   7.0145   7.0724   7.1697   7.2853   7.5838   7.8643
     7.8898   7.9098   8.0528   8.1617   8.3016   8.3563   8.3802   8.4657
     8.5599   8.7291   8.8339   8.8391   8.9667   9.0088   9.3072   9.3771
     9.3870   9.4902   9.5712   9.7208   9.8162   9.8774   9.9004  10.0085
    10.0488  10.0997  10.1494  10.2312  10.2862  10.4128  10.5301  10.5386
    10.5794  10.5880  10.6116  10.7268  10.7651  10.8090  10.8328  10.8650
    11.0072  11.0507  11.0607  11.1249  11.1479  11.2925  11.4680  11.4824
    11.5211  11.5671  11.6278  11.7380  11.7879  11.8425  11.8660  12.0303
    12.0829  12.1629  12.2324  12.3106  12.4071  12.4321  12.5216  12.5341
    12.5854  12.6504  12.7313  12.7859  12.8392  12.8442  12.9325  12.9510
    12.9985  13.0868  13.1416  13.1562  13.2236  13.2960  13.3646  13.4038
    13.4620  13.5299

          k = 0.2500 0.1443 0.0000 ( 61417 PWs)   bands (ev):

  -107.6942-107.6828-107.6793-107.6787-107.6773-107.6761-107.6756-107.6755
  -107.6743-107.6737-107.6737-107.6729-107.6728-107.6725-107.6720-107.6719
  -107.6713-107.6700-107.6698-107.6697-107.6686-107.6665-107.6664-107.6637
  -107.6632-107.6616-107.6615-107.6600-107.6583-107.6581-107.6571-107.6568
  -107.6558-107.6555-107.6507-107.6484-107.5472-107.5446-107.5446-107.4945
  -107.4919-107.4919-107.4684-107.4660-107.4659-107.4223-107.4194-107.4184
  -107.4180-107.4167-107.4165-107.4160-107.4147-107.4147 -65.1388 -65.1317
   -65.1273 -65.1264 -65.1256 -65.1250 -65.1243 -65.1233 -65.1217 -65.1209
   -65.1195 -65.1191 -65.1183 -65.1176 -65.1150 -65.1135 -65.1123 -65.1108
   -65.1099 -65.1096 -65.1080 -65.1078 -65.1077 -65.1067 -65.1056 -65.1054
   -65.1047 -65.1032 -65.1003 -65.0998 -65.0989 -65.0975 -65.0975 -65.0969
   -65.0963 -65.0949 -65.0949 -65.0931 -65.0924 -65.0920 -65.0904 -65.0900
   -65.0888 -65.0870 -65.0869 -65.0860 -65.0858 -65.0856 -65.0844 -65.0841
   -65.0827 -65.0824 -65.0818 -65.0812 -65.0808 -65.0794 -65.0789 -65.0789
   -65.0772 -65.0769 -65.0766 -65.0763 -65.0757 -65.0751 -65.0737 -65.0733
   -65.0721 -65.0718 -65.0708 -65.0707 -65.0699 -65.0697 -65.0688 -65.0688
   -65.0685 -65.0680 -65.0675 -65.0669 -65.0663 -65.0656 -65.0653 -65.0649
   -65.0645 -65.0634 -65.0634 -65.0627 -65.0618 -65.0614 -65.0613 -65.0609
   -65.0601 -65.0586 -65.0583 -65.0575 -65.0572 -65.0550 -65.0550 -65.0547
   -65.0534 -65.0513 -65.0511 -65.0503 -65.0493 -65.0490 -65.0471 -65.0469
   -65.0438 -65.0407 -64.9925 -64.9920 -64.9906 -64.9785 -64.9673 -64.9655
   -64.9438 -64.9415 -64.9410 -64.9400 -64.9388 -64.9388 -64.9247 -64.9176
   -64.9136 -64.9125 -64.9064 -64.9044 -64.8943 -64.8884 -64.8868 -64.8848
   -64.8831 -64.8827 -64.8816 -64.8813 -64.8769 -64.8747 -64.8746 -64.8699
   -64.8695 -64.8642 -64.8637 -64.8610 -64.8481 -64.8459 -64.8458 -64.8457
   -64.8455 -64.8445 -64.8417 -64.8411 -64.8374 -64.8335 -64.8304 -64.7940
   -64.7912 -64.7904 -64.7899 -64.7887 -64.7885 -64.7879 -64.7866 -64.7866
   -13.2084 -10.4443 -10.4416  -6.8251  -6.8169  -4.8633  -3.7382  -3.2374
    -3.1353  -2.9195  -2.3209  -2.2581  -2.2224  -2.1309  -1.6250  -1.4694
    -1.4230  -1.3957  -0.9795  -0.9462  -0.9070  -0.7627  -0.3697  -0.3686
    -0.3634  -0.3176  -0.2835  -0.2609  -0.1842  -0.1555  -0.0837  -0.0833
     0.0494   0.0808   0.0928   0.1872   0.1879   0.1907   0.3447   0.3717
     0.3919   0.4569   0.4586   0.6237   0.6503   0.6852   0.6858   0.6959
     0.7218   0.7220   0.7283   0.7378   0.7680   0.7849   0.7906   0.7923
     0.8011   0.8025   0.8450   0.8454   0.8773   0.8788   0.9027   0.9098
     0.9115   0.9564   0.9658   0.9784   0.9785   0.9940   0.9965   1.0072
     1.0090   1.0251   1.0268   1.0850   1.1311   1.1413   1.1518   1.1534
     1.1656   1.1842   1.1908   1.2070   1.2096   1.2493   1.2501   1.2658
     1.2795   1.3010   1.3381   1.3382   1.3577   1.3747   1.3898   1.3929
     1.4250   1.4288   1.4442   1.4649   1.4758   1.4776   1.5057   1.5412
     1.5429   1.5559   1.5597   1.5719   1.6016   1.6194   1.6222   1.6321
     1.6357   1.6473   1.6824   1.6848   1.7127   1.7425   1.7604   1.7658
     1.7662   1.7793   1.7809   1.7846   1.8142   1.8220   1.8269   1.8387
     1.8394   1.8497   1.8523   1.8570   1.8725   1.8761   1.8807   1.8995
     1.9111   1.9141   1.9153   1.9175   1.9235   1.9317   1.9363   1.9436
     1.9446   1.9512   1.9548   1.9553   1.9781   1.9840   1.9844   1.9943
     1.9947   2.0115   2.0119   2.0168   2.0184   2.0282   2.0300   2.0465
     2.0695   2.0724   2.0824   2.0941   2.0947   2.0972   2.0976   2.1062
     2.1214   2.1247   2.1381   2.1477   2.1518   2.1614   2.1782   2.1789
     2.1941   2.1975   2.2057   2.2107   2.2294   2.2414   2.2417   2.2617
     2.2809   2.2810   2.3111   2.3294   2.3318   2.3345   2.3385   2.3423
     2.3889   2.4133   2.4286   2.4329   2.4378   2.4428   2.4593   2.4610
     2.4907   2.4918   2.5018   2.5042   2.5042   2.5088   2.5181   2.5214
     2.5678   2.5732   2.5785   2.5799   2.5851   2.6085   2.6124   2.6131
     2.6183   2.6195   2.6476   2.6616   2.6635   2.6658   2.6732   2.6786
     2.6909   2.6916   2.7058   2.7113   2.7179   2.7183   2.7285   2.7324
     2.7416   2.7494   2.7993   2.8071   2.8100   2.8318   2.8347   2.8478
     2.8539   2.8545   2.8562   2.8564   2.8647   2.8717   2.8740   2.8835
     2.8861   2.8935   2.8963   2.9233   2.9403   2.9404   2.9421   2.9463
     2.9543   2.9593   2.9690   2.9758   2.9844   2.9851   3.0246   3.0249
     3.0347   3.0354   3.0389   3.0479   3.0502   3.0567   3.0584   3.0609
     3.0642   3.0655   3.0755   3.0757   3.0823   3.0836   3.0908   3.0957
     3.1146   3.1219   3.1233   3.1253   3.1267   3.1292   3.1300   3.1315
     3.1544   3.1631   3.1755   3.1775   3.1776   3.1891   3.1943   3.2043
     3.2264   3.2897   3.3535   3.4056   3.4361   3.4386   3.5429   3.5966
     3.5979   3.8489   3.8871   3.9013   3.9136   3.9719   4.2086   4.4757
     4.6309   4.8601   4.8775   5.1018   5.1942   5.2369   5.2958   5.9656
     5.9691   6.1881   6.2026   6.3376   6.3568   6.3599   6.5255   6.7520
     6.7932   6.9680   7.0145   7.0724   7.1697   7.2853   7.5838   7.8643
     7.8898   7.9098   8.0528   8.1617   8.3016   8.3563   8.3802   8.4657
     8.5599   8.7291   8.8339   8.8391   8.9667   9.0088   9.3072   9.3771
     9.3870   9.4902   9.5712   9.7208   9.8162   9.8774   9.9004  10.0085
    10.0488  10.0997  10.1494  10.2312  10.2862  10.4128  10.5301  10.5386
    10.5794  10.5880  10.6116  10.7268  10.7651  10.8090  10.8328  10.8650
    11.0072  11.0507  11.0607  11.1249  11.1479  11.2925  11.4680  11.4824
    11.5211  11.5671  11.6278  11.7380  11.7879  11.8425  11.8660  12.0303
    12.0829  12.1629  12.2324  12.3106  12.4071  12.4321  12.5216  12.5341
    12.5854  12.6504  12.7313  12.7859  12.8392  12.8442  12.9325  12.9510
    12.9985  13.0868  13.1416  13.1562  13.2236  13.2960  13.3646  13.4038
    13.4620  13.5299

          k = 0.5000-0.2887 0.0000 ( 61408 PWs)   bands (ev):

  -107.6942-107.6821-107.6803-107.6788-107.6774-107.6758-107.6753-107.6751
  -107.6748-107.6736-107.6736-107.6732-107.6729-107.6724-107.6719-107.6718
  -107.6714-107.6705-107.6697-107.6697-107.6686-107.6664-107.6662-107.6637
  -107.6630-107.6616-107.6615-107.6601-107.6587-107.6583-107.6570-107.6561
  -107.6560-107.6556-107.6507-107.6484-107.5472-107.5447-107.5446-107.4945
  -107.4919-107.4918-107.4685-107.4660-107.4659-107.4214-107.4206-107.4186
  -107.4182-107.4163-107.4161-107.4157-107.4150-107.4148 -65.1375 -65.1323
   -65.1302 -65.1291 -65.1276 -65.1254 -65.1246 -65.1238 -65.1229 -65.1222
   -65.1219 -65.1213 -65.1208 -65.1197 -65.1173 -65.1149 -65.1114 -65.1110
   -65.1108 -65.1098 -65.1092 -65.1088 -65.1086 -65.1082 -65.1068 -65.1054
   -65.1051 -65.1037 -65.1002 -65.0984 -65.0975 -65.0975 -65.0970 -65.0957
   -65.0952 -65.0925 -65.0911 -65.0904 -65.0887 -65.0881 -65.0881 -65.0878
   -65.0871 -65.0862 -65.0857 -65.0853 -65.0848 -65.0833 -65.0830 -65.0817
   -65.0811 -65.0805 -65.0805 -65.0801 -65.0793 -65.0789 -65.0779 -65.0773
   -65.0757 -65.0753 -65.0745 -65.0744 -65.0737 -65.0733 -65.0731 -65.0730
   -65.0726 -65.0722 -65.0718 -65.0707 -65.0702 -65.0697 -65.0688 -65.0685
   -65.0683 -65.0669 -65.0669 -65.0661 -65.0659 -65.0656 -65.0656 -65.0646
   -65.0642 -65.0634 -65.0633 -65.0630 -65.0629 -65.0623 -65.0615 -65.0614
   -65.0608 -65.0602 -65.0598 -65.0583 -65.0574 -65.0573 -65.0569 -65.0551
   -65.0547 -65.0543 -65.0528 -65.0526 -65.0518 -65.0507 -65.0505 -65.0481
   -65.0445 -65.0425 -64.9941 -64.9929 -64.9913 -64.9785 -64.9667 -64.9634
   -64.9454 -64.9413 -64.9390 -64.9390 -64.9383 -64.9382 -64.9262 -64.9186
   -64.9141 -64.9110 -64.9043 -64.9016 -64.8960 -64.8926 -64.8903 -64.8853
   -64.8853 -64.8849 -64.8844 -64.8840 -64.8769 -64.8747 -64.8746 -64.8662
   -64.8658 -64.8540 -64.8538 -64.8536 -64.8530 -64.8481 -64.8459 -64.8458
   -64.8457 -64.8456 -64.8448 -64.8424 -64.8422 -64.8338 -64.8329 -64.7932
   -64.7923 -64.7905 -64.7901 -64.7883 -64.7883 -64.7878 -64.7868 -64.7866
   -13.2076 -10.4478 -10.4425  -6.8284  -6.8121  -4.8341  -3.2089  -3.1148
    -3.1127  -2.9235  -2.5408  -2.5397  -2.3376  -2.2667  -1.7680  -1.6072
    -1.5797  -1.5785  -1.2895  -1.0756  -1.0472  -0.5611  -0.4920  -0.3920
    -0.3662  -0.3084  -0.3073   0.0335   0.1917   0.2183   0.2357   0.2370
     0.2383   0.2399   0.2429   0.3209   0.3655   0.4011   0.4016   0.4153
     0.4174   0.4343   0.4348   0.4366   0.4368   0.4868   0.4869   0.4895
     0.4895   0.6194   0.6438   0.6457   0.6530   0.6534   0.6622   0.7310
     0.8252   0.8307   0.8348   0.8353   0.8363   0.8442   0.8706   0.8717
     0.8772   0.8830   0.8831   1.0007   1.0019   1.0080   1.0080   1.0207
     1.0313   1.0889   1.0914   1.1081   1.1199   1.1204   1.1657   1.1681
     1.1941   1.2081   1.2140   1.2154   1.2706   1.2712   1.2800   1.2991
     1.3380   1.3395   1.3742   1.3747   1.3830   1.3862   1.3941   1.4128
     1.4135   1.4210   1.4457   1.4879   1.4894   1.5133   1.5165   1.5392
     1.5418   1.5530   1.5592   1.5674   1.5677   1.5747   1.5758   1.6224
     1.6240   1.6257   1.6286   1.6322   1.6446   1.6860   1.6883   1.6961
     1.6965   1.7016   1.7048   1.7074   1.7104   1.7237   1.7482   1.7894
     1.8011   1.8032   1.8058   1.8153   1.8317   1.8508   1.8520   1.8538
     1.8556   1.8569   1.8652   1.8957   1.9034   1.9107   1.9205   1.9227
     1.9303   1.9312   1.9556   1.9615   1.9658   1.9664   1.9918   1.9935
     1.9941   2.0008   2.0022   2.0174   2.0187   2.0237   2.0273   2.0465
     2.0525   2.0780   2.0922   2.0945   2.1424   2.1446   2.1537   2.1553
     2.1571   2.1573   2.1581   2.1600   2.1634   2.1705   2.1801   2.1823
     2.1873   2.1979   2.2002   2.2039   2.2043   2.2087   2.2091   2.2800
     2.2803   2.2861   2.2984   2.3417   2.3424   2.3514   2.3553   2.3618
     2.3682   2.3693   2.3750   2.3812   2.3881   2.3952   2.4110   2.4295
     2.4352   2.4382   2.4422   2.4462   2.4580   2.4698   2.4707   2.4722
     2.4753   2.4887   2.4890   2.4932   2.4969   2.5121   2.5124   2.5970
     2.5994   2.6224   2.6255   2.6468   2.6477   2.6536   2.6555   2.6784
     2.6804   2.6937   2.7095   2.7143   2.7260   2.7268   2.7329   2.7473
     2.7487   2.7623   2.7649   2.7674   2.7704   2.7816   2.7942   2.7958
     2.8040   2.8061   2.8185   2.8541   2.8542   2.8597   2.8606   2.8699
     2.8704   2.8815   2.8894   2.9136   2.9171   2.9328   2.9371   2.9524
     2.9528   2.9713   2.9801   2.9909   2.9964   3.0296   3.0300   3.0502
     3.0585   3.0625   3.0670   3.0847   3.0894   3.0905   3.0915   3.0920
     3.0936   3.1013   3.1241   3.1246   3.1251   3.1253   3.1260   3.1394
     3.1424   3.1469   3.1570   3.1644   3.1755   3.1788   3.1837   3.1862
     3.1866   3.2074   3.2145   3.2298   3.2324   3.2423   3.2433   3.2465
     3.2476   3.2997   3.3696   3.8606   3.9202   3.9344   3.9677   4.3947
     4.4520   4.4535   4.4535   4.4546   4.7075   4.7156   4.7180   4.7195
     5.0243   5.0606   5.1273   5.1942   5.2282   5.2574   5.2832   5.3098
     5.3474   5.5476   5.8776   6.0816   6.1217   6.1443   6.2200   6.2520
     6.2631   6.3074   6.3225   6.6701   6.8247   6.8705   6.9933   7.5432
     7.5629   7.5753   7.7877   7.8093   7.9887   8.3434   8.4095   8.4293
     8.6815   8.6927   8.7050   8.7542   8.9360   8.9994   9.0397   9.2170
     9.3238   9.3430   9.3494   9.3662   9.4528   9.5424   9.6232   9.7522
     9.8220   9.9308   9.9587  10.0204  10.0684  10.2447  10.3133  10.4050
    10.4116  10.5196  10.6126  10.6494  10.6698  10.7824  10.9022  11.0244
    11.0550  11.1053  11.2501  11.2801  11.2893  11.4354  11.4502  11.5074
    11.7201  11.7546  11.8271  12.0215  12.1523  12.1948  12.3147  12.3716
    12.3841  12.4010  12.4418  12.6817  12.6912  12.8169  12.8279  12.9163
    12.9554  13.0456  13.1295  13.1438  13.2282  13.3217  13.3261  13.3453
    13.3913  13.4026  13.4111  13.4457  13.6060  13.6467  13.6553  13.7098
    13.8546  13.8568

          k =-0.5000-0.2887 0.0000 ( 61408 PWs)   bands (ev):

  -107.6942-107.6821-107.6803-107.6788-107.6774-107.6758-107.6753-107.6751
  -107.6748-107.6736-107.6736-107.6732-107.6729-107.6724-107.6719-107.6718
  -107.6714-107.6705-107.6697-107.6697-107.6686-107.6664-107.6662-107.6637
  -107.6630-107.6616-107.6615-107.6601-107.6587-107.6583-107.6570-107.6561
  -107.6560-107.6556-107.6507-107.6484-107.5472-107.5447-107.5446-107.4945
  -107.4919-107.4918-107.4685-107.4660-107.4659-107.4214-107.4206-107.4186
  -107.4182-107.4163-107.4161-107.4157-107.4149-107.4148 -65.1375 -65.1323
   -65.1302 -65.1291 -65.1276 -65.1254 -65.1246 -65.1238 -65.1229 -65.1222
   -65.1219 -65.1213 -65.1208 -65.1197 -65.1173 -65.1149 -65.1114 -65.1110
   -65.1108 -65.1098 -65.1092 -65.1088 -65.1086 -65.1082 -65.1068 -65.1054
   -65.1051 -65.1037 -65.1002 -65.0984 -65.0975 -65.0975 -65.0970 -65.0957
   -65.0952 -65.0925 -65.0911 -65.0904 -65.0887 -65.0881 -65.0881 -65.0878
   -65.0871 -65.0862 -65.0857 -65.0853 -65.0848 -65.0833 -65.0830 -65.0817
   -65.0811 -65.0805 -65.0805 -65.0801 -65.0793 -65.0789 -65.0779 -65.0773
   -65.0757 -65.0752 -65.0745 -65.0744 -65.0737 -65.0733 -65.0731 -65.0730
   -65.0726 -65.0722 -65.0718 -65.0707 -65.0702 -65.0697 -65.0688 -65.0685
   -65.0683 -65.0669 -65.0669 -65.0661 -65.0659 -65.0656 -65.0656 -65.0646
   -65.0642 -65.0634 -65.0633 -65.0630 -65.0629 -65.0623 -65.0615 -65.0614
   -65.0608 -65.0602 -65.0598 -65.0583 -65.0574 -65.0573 -65.0569 -65.0551
   -65.0547 -65.0543 -65.0528 -65.0526 -65.0518 -65.0507 -65.0505 -65.0481
   -65.0445 -65.0425 -64.9941 -64.9929 -64.9913 -64.9785 -64.9667 -64.9634
   -64.9454 -64.9413 -64.9390 -64.9390 -64.9383 -64.9382 -64.9262 -64.9186
   -64.9141 -64.9109 -64.9043 -64.9016 -64.8960 -64.8926 -64.8903 -64.8853
   -64.8853 -64.8849 -64.8844 -64.8840 -64.8769 -64.8747 -64.8746 -64.8662
   -64.8658 -64.8540 -64.8538 -64.8536 -64.8530 -64.8481 -64.8459 -64.8458
   -64.8457 -64.8456 -64.8448 -64.8424 -64.8422 -64.8338 -64.8329 -64.7932
   -64.7923 -64.7905 -64.7901 -64.7883 -64.7883 -64.7878 -64.7868 -64.7866
   -13.2076 -10.4478 -10.4424  -6.8284  -6.8121  -4.8341  -3.2089  -3.1148
    -3.1127  -2.9235  -2.5408  -2.5397  -2.3377  -2.2666  -1.7680  -1.6072
    -1.5797  -1.5785  -1.2895  -1.0756  -1.0472  -0.5611  -0.4920  -0.3920
    -0.3662  -0.3082  -0.3074   0.0335   0.1917   0.2183   0.2357   0.2370
     0.2383   0.2399   0.2429   0.3209   0.3655   0.4012   0.4016   0.4153
     0.4174   0.4343   0.4348   0.4366   0.4368   0.4868   0.4869   0.4895
     0.4895   0.6194   0.6438   0.6457   0.6530   0.6534   0.6622   0.7310
     0.8252   0.8307   0.8348   0.8353   0.8363   0.8442   0.8706   0.8717
     0.8772   0.8830   0.8831   1.0007   1.0019   1.0080   1.0080   1.0207
     1.0313   1.0889   1.0914   1.1081   1.1199   1.1204   1.1657   1.1681
     1.1941   1.2081   1.2140   1.2154   1.2706   1.2712   1.2800   1.2991
     1.3380   1.3395   1.3742   1.3747   1.3830   1.3862   1.3941   1.4128
     1.4135   1.4210   1.4457   1.4879   1.4894   1.5133   1.5165   1.5392
     1.5418   1.5530   1.5592   1.5674   1.5677   1.5747   1.5758   1.6224
     1.6240   1.6257   1.6286   1.6322   1.6446   1.6860   1.6883   1.6961
     1.6965   1.7016   1.7048   1.7074   1.7104   1.7237   1.7482   1.7894
     1.8011   1.8032   1.8058   1.8153   1.8317   1.8508   1.8520   1.8538
     1.8556   1.8569   1.8652   1.8957   1.9034   1.9107   1.9205   1.9227
     1.9303   1.9312   1.9556   1.9615   1.9658   1.9664   1.9918   1.9935
     1.9941   2.0008   2.0022   2.0174   2.0187   2.0237   2.0273   2.0465
     2.0525   2.0780   2.0922   2.0945   2.1424   2.1446   2.1537   2.1553
     2.1571   2.1573   2.1581   2.1600   2.1634   2.1705   2.1801   2.1824
     2.1873   2.1979   2.2002   2.2039   2.2043   2.2087   2.2091   2.2800
     2.2803   2.2861   2.2984   2.3417   2.3424   2.3514   2.3553   2.3618
     2.3682   2.3693   2.3750   2.3812   2.3881   2.3952   2.4110   2.4295
     2.4352   2.4382   2.4422   2.4462   2.4580   2.4698   2.4707   2.4722
     2.4753   2.4887   2.4890   2.4932   2.4969   2.5121   2.5124   2.5970
     2.5994   2.6224   2.6255   2.6468   2.6477   2.6536   2.6555   2.6784
     2.6804   2.6937   2.7095   2.7143   2.7260   2.7268   2.7329   2.7473
     2.7487   2.7623   2.7649   2.7674   2.7704   2.7816   2.7942   2.7958
     2.8040   2.8061   2.8185   2.8541   2.8542   2.8597   2.8606   2.8699
     2.8704   2.8815   2.8894   2.9136   2.9171   2.9328   2.9371   2.9524
     2.9528   2.9713   2.9801   2.9909   2.9964   3.0296   3.0300   3.0502
     3.0585   3.0625   3.0670   3.0847   3.0894   3.0905   3.0915   3.0920
     3.0936   3.1013   3.1241   3.1246   3.1251   3.1253   3.1260   3.1394
     3.1424   3.1469   3.1570   3.1644   3.1755   3.1788   3.1837   3.1862
     3.1866   3.2074   3.2145   3.2298   3.2324   3.2423   3.2433   3.2465
     3.2476   3.2997   3.3696   3.8606   3.9202   3.9344   3.9677   4.3947
     4.4520   4.4535   4.4535   4.4546   4.7075   4.7156   4.7180   4.7195
     5.0243   5.0606   5.1273   5.1942   5.2282   5.2574   5.2832   5.3098
     5.3474   5.5476   5.8776   6.0816   6.1217   6.1443   6.2200   6.2520
     6.2631   6.3074   6.3225   6.6701   6.8246   6.8705   6.9933   7.5432
     7.5629   7.5753   7.7877   7.8093   7.9887   8.3434   8.4096   8.4293
     8.6815   8.6927   8.7050   8.7542   8.9360   8.9994   9.0397   9.2170
     9.3238   9.3430   9.3494   9.3662   9.4528   9.5424   9.6232   9.7522
     9.8220   9.9308   9.9587  10.0204  10.0684  10.2447  10.3133  10.4050
    10.4116  10.5196  10.6126  10.6494  10.6698  10.7824  10.9022  11.0244
    11.0550  11.1053  11.2501  11.2801  11.2893  11.4353  11.4502  11.5074
    11.7201  11.7546  11.8271  12.0215  12.1522  12.1948  12.3145  12.3717
    12.3841  12.4010  12.4418  12.6817  12.6912  12.8169  12.8279  12.9163
    12.9554  13.0456  13.1295  13.1438  13.2281  13.3217  13.3261  13.3453
    13.3913  13.4026  13.4111  13.4457  13.6060  13.6467  13.6553  13.7098
    13.8546  13.8567

          k =-0.2500-0.7217 0.0000 ( 61343 PWs)   bands (ev):

  -107.6941-107.6822-107.6799-107.6794-107.6771-107.6759-107.6752-107.6751
  -107.6745-107.6740-107.6736-107.6733-107.6725-107.6724-107.6720-107.6718
  -107.6715-107.6703-107.6700-107.6697-107.6686-107.6664-107.6662-107.6637
  -107.6630-107.6616-107.6615-107.6600-107.6590-107.6581-107.6567-107.6564
  -107.6559-107.6556-107.6507-107.6484-107.5472-107.5447-107.5446-107.4945
  -107.4919-107.4918-107.4685-107.4660-107.4659-107.4215-107.4201-107.4196
  -107.4175-107.4165-107.4161-107.4158-107.4150-107.4147 -65.1376 -65.1319
   -65.1291 -65.1287 -65.1275 -65.1274 -65.1264 -65.1250 -65.1241 -65.1220
   -65.1215 -65.1207 -65.1177 -65.1169 -65.1158 -65.1149 -65.1146 -65.1134
   -65.1117 -65.1096 -65.1089 -65.1085 -65.1078 -65.1069 -65.1060 -65.1058
   -65.1044 -65.1034 -65.1017 -65.1007 -65.0987 -65.0964 -65.0959 -65.0951
   -65.0935 -65.0928 -65.0922 -65.0911 -65.0906 -65.0889 -65.0884 -65.0877
   -65.0873 -65.0865 -65.0855 -65.0852 -65.0834 -65.0823 -65.0818 -65.0813
   -65.0809 -65.0805 -65.0803 -65.0793 -65.0790 -65.0784 -65.0779 -65.0768
   -65.0765 -65.0758 -65.0751 -65.0751 -65.0744 -65.0735 -65.0727 -65.0724
   -65.0718 -65.0712 -65.0709 -65.0705 -65.0700 -65.0694 -65.0689 -65.0687
   -65.0685 -65.0677 -65.0672 -65.0668 -65.0663 -65.0654 -65.0653 -65.0649
   -65.0646 -65.0643 -65.0636 -65.0630 -65.0628 -65.0623 -65.0622 -65.0614
   -65.0610 -65.0598 -65.0592 -65.0584 -65.0577 -65.0569 -65.0568 -65.0565
   -65.0552 -65.0537 -65.0535 -65.0525 -65.0513 -65.0495 -65.0484 -65.0472
   -65.0464 -65.0428 -64.9937 -64.9929 -64.9919 -64.9782 -64.9668 -64.9635
   -64.9442 -64.9413 -64.9404 -64.9389 -64.9388 -64.9380 -64.9260 -64.9175
   -64.9150 -64.9092 -64.9059 -64.9024 -64.8956 -64.8906 -64.8901 -64.8892
   -64.8875 -64.8859 -64.8809 -64.8771 -64.8769 -64.8767 -64.8747 -64.8746
   -64.8575 -64.8555 -64.8545 -64.8543 -64.8490 -64.8486 -64.8481 -64.8481
   -64.8475 -64.8459 -64.8458 -64.8413 -64.8368 -64.8365 -64.8326 -64.7933
   -64.7919 -64.7913 -64.7895 -64.7884 -64.7882 -64.7879 -64.7868 -64.7866
   -13.2076 -10.4465 -10.4437  -6.8241  -6.8163  -4.8344  -3.3191  -3.2083
    -2.9233  -2.7319  -2.5182  -2.5137  -2.3344  -2.2922  -1.9867  -1.9365
    -1.8416  -1.4126  -1.0912  -1.0068  -0.6491  -0.5023  -0.4989  -0.3774
    -0.3297  -0.1574  -0.1514  -0.1163  -0.0874   0.0905   0.0910   0.1002
     0.2533   0.2622   0.2859   0.2866   0.3004   0.3521   0.3592   0.3611
     0.3809   0.4787   0.4803   0.4814   0.4826   0.5326   0.5506   0.6118
     0.6226   0.6314   0.6428   0.6751   0.6755   0.6761   0.6925   0.6934
     0.7321   0.7406   0.7858   0.7905   0.8164   0.8171   0.8493   0.8499
     0.8566   0.9047   0.9090   0.9364   0.9626   0.9842   0.9855   1.0358
     1.0568   1.1052   1.1187   1.1271   1.1349   1.1456   1.1681   1.1862
     1.2225   1.2387   1.2394   1.2421   1.2644   1.2875   1.2910   1.3123
     1.3158   1.3655   1.3676   1.3842   1.3895   1.4055   1.4092   1.4128
     1.4178   1.4645   1.4687   1.4705   1.4724   1.4840   1.4929   1.5087
     1.5116   1.5253   1.5278   1.5559   1.5621   1.5682   1.5794   1.5908
     1.5964   1.6214   1.6629   1.6669   1.6673   1.6741   1.6813   1.6952
     1.7141   1.7219   1.7378   1.7582   1.7606   1.7677   1.7701   1.7737
     1.7961   1.8085   1.8093   1.8119   1.8146   1.8509   1.8576   1.8611
     1.8660   1.8699   1.8763   1.8915   1.8934   1.9122   1.9138   1.9195
     1.9211   1.9365   1.9507   1.9536   1.9819   1.9884   1.9914   1.9986
     2.0032   2.0074   2.0158   2.0173   2.0284   2.0292   2.0365   2.0422
     2.0443   2.0533   2.0585   2.0649   2.0864   2.0928   2.0981   2.1042
     2.1255   2.1267   2.1282   2.1324   2.1350   2.1406   2.1409   2.1443
     2.1451   2.1502   2.2065   2.2073   2.2586   2.2720   2.2744   2.2763
     2.2812   2.2850   2.3002   2.3041   2.3290   2.3313   2.3426   2.3549
     2.3702   2.3730   2.4080   2.4109   2.4153   2.4380   2.4406   2.4433
     2.4449   2.4460   2.4514   2.4517   2.4551   2.4646   2.4829   2.4860
     2.5024   2.5201   2.5307   2.5320   2.5380   2.5471   2.5573   2.5764
     2.5794   2.5884   2.5981   2.6065   2.6132   2.6288   2.6496   2.6502
     2.6609   2.6657   2.6817   2.6923   2.6980   2.7173   2.7324   2.7389
     2.7498   2.7538   2.7595   2.7741   2.7841   2.7942   2.8044   2.8070
     2.8104   2.8138   2.8165   2.8182   2.8283   2.8361   2.8584   2.8764
     2.8928   2.8974   2.9003   2.9154   2.9454   2.9483   2.9618   2.9724
     2.9913   3.0085   3.0129   3.0159   3.0198   3.0236   3.0287   3.0607
     3.0636   3.0666   3.0683   3.0736   3.0819   3.0836   3.0870   3.0884
     3.0939   3.0953   3.0980   3.0997   3.1044   3.1137   3.1169   3.1258
     3.1284   3.1398   3.1407   3.1511   3.1629   3.1670   3.1755   3.1837
     3.1851   3.2011   3.2133   3.2191   3.2426   3.2624   3.2642   3.4313
     3.4596   3.5300   3.5310   3.6229   3.6278   3.7700   3.9473   3.9617
     4.3471   4.3995   4.4341   4.4382   4.4566   4.7101   4.7962   4.8299
     4.8405   4.8508   5.0508   5.2671   5.3003   5.3108   5.7641   5.7820
     5.8313   5.9818   6.0052   6.0332   6.0581   6.2095   6.2123   6.2562
     6.3605   6.6444   6.6802   6.7720   6.9202   6.9646   7.0543   7.1589
     7.1766   7.2253   7.2699   7.5126   7.6986   7.7455   8.0292   8.0809
     8.4572   8.6147   8.6231   8.7265   8.7471   8.8744   9.1405   9.1880
     9.2791   9.3657   9.4043   9.5339   9.5778   9.6039   9.7576   9.7897
     9.8341  10.0182  10.1056  10.1600  10.2043  10.4061  10.4166  10.5275
    10.5598  10.6568  10.8440  10.8999  10.9898  11.0304  11.1065  11.1822
    11.2147  11.3067  11.4184  11.5854  11.6019  11.6480  11.6714  11.7424
    11.8051  11.9027  11.9346  11.9529  12.0102  12.0907  12.1476  12.2329
    12.3133  12.3847  12.4917  12.5169  12.5665  12.6460  12.6950  12.7397
    12.7526  12.8098  12.8548  12.9098  12.9716  13.1010  13.1563  13.2019
    13.3236  13.3644  13.3967  13.4271  13.5276  13.5870  13.6477  13.6994
    13.7452  13.7680

          k =-0.5000-0.5774 0.0000 ( 61343 PWs)   bands (ev):

  -107.6941-107.6822-107.6799-107.6794-107.6771-107.6759-107.6752-107.6751
  -107.6745-107.6740-107.6736-107.6733-107.6725-107.6724-107.6720-107.6718
  -107.6715-107.6703-107.6700-107.6697-107.6686-107.6664-107.6662-107.6637
  -107.6630-107.6616-107.6615-107.6600-107.6590-107.6581-107.6567-107.6564
  -107.6559-107.6556-107.6507-107.6484-107.5472-107.5447-107.5446-107.4945
  -107.4919-107.4918-107.4685-107.4660-107.4659-107.4215-107.4201-107.4196
  -107.4175-107.4165-107.4161-107.4158-107.4150-107.4147 -65.1376 -65.1319
   -65.1291 -65.1287 -65.1275 -65.1274 -65.1264 -65.1251 -65.1241 -65.1219
   -65.1215 -65.1207 -65.1177 -65.1169 -65.1158 -65.1149 -65.1146 -65.1134
   -65.1117 -65.1096 -65.1089 -65.1085 -65.1078 -65.1069 -65.1060 -65.1058
   -65.1044 -65.1034 -65.1017 -65.1007 -65.0987 -65.0964 -65.0959 -65.0951
   -65.0935 -65.0928 -65.0922 -65.0911 -65.0906 -65.0889 -65.0884 -65.0877
   -65.0873 -65.0865 -65.0855 -65.0852 -65.0834 -65.0823 -65.0818 -65.0813
   -65.0809 -65.0805 -65.0803 -65.0793 -65.0790 -65.0784 -65.0779 -65.0768
   -65.0765 -65.0758 -65.0751 -65.0750 -65.0744 -65.0735 -65.0727 -65.0724
   -65.0718 -65.0712 -65.0709 -65.0705 -65.0700 -65.0694 -65.0689 -65.0687
   -65.0685 -65.0677 -65.0672 -65.0668 -65.0663 -65.0654 -65.0653 -65.0649
   -65.0646 -65.0643 -65.0636 -65.0630 -65.0628 -65.0623 -65.0622 -65.0614
   -65.0610 -65.0598 -65.0592 -65.0584 -65.0577 -65.0569 -65.0568 -65.0565
   -65.0552 -65.0537 -65.0535 -65.0525 -65.0513 -65.0495 -65.0484 -65.0471
   -65.0464 -65.0428 -64.9937 -64.9929 -64.9919 -64.9782 -64.9668 -64.9635
   -64.9442 -64.9413 -64.9404 -64.9389 -64.9388 -64.9380 -64.9260 -64.9175
   -64.9150 -64.9092 -64.9059 -64.9024 -64.8956 -64.8906 -64.8901 -64.8892
   -64.8875 -64.8859 -64.8809 -64.8771 -64.8769 -64.8767 -64.8747 -64.8746
   -64.8575 -64.8555 -64.8545 -64.8543 -64.8490 -64.8486 -64.8481 -64.8481
   -64.8475 -64.8459 -64.8458 -64.8413 -64.8368 -64.8365 -64.8326 -64.7933
   -64.7919 -64.7913 -64.7895 -64.7884 -64.7882 -64.7879 -64.7868 -64.7866
   -13.2076 -10.4464 -10.4439  -6.8245  -6.8160  -4.8344  -3.3191  -3.2083
    -2.9233  -2.7319  -2.5182  -2.5137  -2.3344  -2.2922  -1.9867  -1.9365
    -1.8416  -1.4126  -1.0912  -1.0068  -0.6491  -0.5023  -0.4989  -0.3773
    -0.3299  -0.1574  -0.1514  -0.1163  -0.0874   0.0905   0.0910   0.1002
     0.2533   0.2622   0.2859   0.2866   0.3004   0.3521   0.3592   0.3611
     0.3809   0.4787   0.4803   0.4814   0.4826   0.5326   0.5506   0.6118
     0.6226   0.6314   0.6428   0.6751   0.6755   0.6761   0.6925   0.6934
     0.7321   0.7406   0.7858   0.7905   0.8164   0.8171   0.8493   0.8499
     0.8566   0.9047   0.9090   0.9364   0.9626   0.9842   0.9855   1.0358
     1.0568   1.1052   1.1187   1.1271   1.1349   1.1456   1.1681   1.1862
     1.2226   1.2387   1.2394   1.2421   1.2644   1.2875   1.2910   1.3123
     1.3158   1.3655   1.3676   1.3842   1.3895   1.4055   1.4092   1.4128
     1.4178   1.4645   1.4687   1.4705   1.4724   1.4840   1.4929   1.5087
     1.5116   1.5253   1.5278   1.5558   1.5621   1.5682   1.5794   1.5908
     1.5964   1.6214   1.6629   1.6669   1.6673   1.6741   1.6813   1.6952
     1.7141   1.7219   1.7378   1.7582   1.7606   1.7677   1.7701   1.7737
     1.7961   1.8085   1.8093   1.8119   1.8146   1.8509   1.8576   1.8611
     1.8661   1.8699   1.8763   1.8915   1.8934   1.9122   1.9138   1.9195
     1.9211   1.9365   1.9506   1.9536   1.9819   1.9884   1.9914   1.9986
     2.0032   2.0074   2.0158   2.0173   2.0284   2.0292   2.0365   2.0422
     2.0443   2.0533   2.0585   2.0649   2.0864   2.0928   2.0981   2.1042
     2.1255   2.1267   2.1282   2.1324   2.1350   2.1406   2.1409   2.1443
     2.1451   2.1502   2.2064   2.2073   2.2586   2.2720   2.2744   2.2763
     2.2812   2.2850   2.3002   2.3041   2.3290   2.3313   2.3426   2.3549
     2.3702   2.3730   2.4080   2.4109   2.4153   2.4380   2.4406   2.4433
     2.4448   2.4460   2.4514   2.4517   2.4551   2.4646   2.4829   2.4860
     2.5024   2.5201   2.5307   2.5320   2.5380   2.5471   2.5573   2.5764
     2.5794   2.5884   2.5981   2.6066   2.6132   2.6288   2.6496   2.6502
     2.6609   2.6657   2.6817   2.6923   2.6980   2.7173   2.7324   2.7389
     2.7498   2.7538   2.7595   2.7741   2.7841   2.7942   2.8044   2.8070
     2.8104   2.8138   2.8165   2.8182   2.8283   2.8361   2.8584   2.8764
     2.8928   2.8974   2.9003   2.9154   2.9453   2.9483   2.9618   2.9724
     2.9913   3.0085   3.0129   3.0159   3.0198   3.0236   3.0287   3.0607
     3.0636   3.0666   3.0683   3.0736   3.0819   3.0836   3.0870   3.0884
     3.0939   3.0953   3.0980   3.0997   3.1044   3.1137   3.1169   3.1258
     3.1284   3.1398   3.1407   3.1511   3.1629   3.1670   3.1755   3.1837
     3.1851   3.2011   3.2133   3.2191   3.2426   3.2624   3.2642   3.4313
     3.4596   3.5299   3.5310   3.6229   3.6278   3.7700   3.9473   3.9617
     4.3471   4.3995   4.4341   4.4382   4.4566   4.7101   4.7961   4.8299
     4.8405   4.8508   5.0508   5.2671   5.3003   5.3108   5.7641   5.7820
     5.8313   5.9818   6.0052   6.0332   6.0581   6.2095   6.2123   6.2562
     6.3605   6.6444   6.6801   6.7720   6.9202   6.9646   7.0543   7.1589
     7.1766   7.2252   7.2699   7.5126   7.6986   7.7455   8.0292   8.0809
     8.4571   8.6147   8.6231   8.7265   8.7471   8.8744   9.1404   9.1880
     9.2792   9.3657   9.4043   9.5339   9.5778   9.6039   9.7576   9.7898
     9.8341  10.0181  10.1056  10.1601  10.2043  10.4061  10.4166  10.5276
    10.5597  10.6568  10.8440  10.8999  10.9898  11.0304  11.1065  11.1822
    11.2148  11.3067  11.4185  11.5854  11.6020  11.6480  11.6714  11.7423
    11.8051  11.9028  11.9346  11.9529  12.0102  12.0907  12.1476  12.2329
    12.3134  12.3847  12.4917  12.5169  12.5664  12.6460  12.6950  12.7397
    12.7526  12.8097  12.8548  12.9098  12.9716  13.1010  13.1563  13.2019
    13.3236  13.3644  13.3967  13.4271  13.5276  13.5870  13.6477  13.6994
    13.7452  13.7679

     the Fermi energy is     4.7604 ev

!    total energy              =  -21903.74334021 Ry
     Harris-Foulkes estimate   =  -21903.74334018 Ry
     estimated scf accuracy    <          3.2E-09 Ry

     The total energy is the sum of the following terms:

     one-electron contribution = -209316.53364861 Ry
     hartree contribution      =  104865.91053360 Ry
     xc contribution           =   -2143.31517537 Ry
     ewald contribution        =   84690.24838325 Ry
     smearing contrib. (-TS)   =      -0.05343307 Ry

     convergence has been achieved in  41 iterations
 
     init_run     :     63.05s CPU     65.22s WALL (       1 calls)
     electrons    :  19354.03s CPU  19747.20s WALL (       1 calls)

     Called by init_run:
     wfcinit      :     52.03s CPU     53.61s WALL (       1 calls)
     potinit      :      7.68s CPU      7.84s WALL (       1 calls)
     hinit0       :      1.45s CPU      1.46s WALL (       1 calls)

     Called by electrons:
     c_bands      :  18138.84s CPU  18462.06s WALL (      41 calls)
     sum_band     :    865.50s CPU    905.85s WALL (      41 calls)
     v_of_rho     :    284.03s CPU    293.66s WALL (      42 calls)
     newd         :     58.81s CPU     79.03s WALL (      42 calls)
     mix_rho      :      9.36s CPU      9.52s WALL (      41 calls)

     Called by c_bands:
     init_us_2    :     18.37s CPU     18.44s WALL (     830 calls)
     cegterg      :  18005.43s CPU  18323.17s WALL (     410 calls)

     Called by sum_band:
     sum_band:bec :      3.33s CPU      3.34s WALL (     410 calls)
     addusdens    :     41.95s CPU     66.00s WALL (      41 calls)

     Called by *egterg:
     h_psi        :   3755.56s CPU   3847.50s WALL (    2374 calls)
     s_psi        :    414.48s CPU    414.81s WALL (    2374 calls)
     g_psi        :      7.27s CPU      7.29s WALL (    1954 calls)
     cdiaghg      :  11383.21s CPU  11498.10s WALL (    2364 calls)

     Called by h_psi:
     h_psi:pot    :   3744.38s CPU   3816.91s WALL (    2374 calls)
     h_psi:calbec :    463.44s CPU    464.41s WALL (    2374 calls)
     vloc_psi     :   2864.24s CPU   2934.55s WALL (    2374 calls)
     add_vuspsi   :    416.66s CPU    417.93s WALL (    2374 calls)

     General routines
     calbec       :    629.43s CPU    630.64s WALL (    2784 calls)
     fft          :    270.04s CPU    272.02s WALL (    2645 calls)
     ffts         :      8.33s CPU      8.35s WALL (      83 calls)
     fftw         :   3112.79s CPU   3190.82s WALL ( 1616356 calls)
     interpolate  :      4.35s CPU      4.39s WALL (      42 calls)
 
     Parallel routines
     fft_scatt_xy :    333.04s CPU    336.05s WALL ( 1619084 calls)
     fft_scatt_yz :   2007.40s CPU   2068.30s WALL ( 1619084 calls)
 
     PWSCF        :     5h23m CPU       23h 5m WALL

      30h
 
   This run was terminated on:   1:27:25  25Nov2019            

=------------------------------------------------------------------------------=
   JOB DONE.
=------------------------------------------------------------------------------=
