
     Program PWSCF v.6.3MaX starts on 23Nov2019 at  3:43:14 

     This program is part of the open-source Quantum ESPRESSO suite
     for quantum simulation of materials; please cite
         "P. Giannozzi et al., J. Phys.:Condens. Matter 21 395502 (2009);
         "P. Giannozzi et al., J. Phys.:Condens. Matter 29 465901 (2017);
          URL http://www.quantum-espresso.org", 
     in publications or presentations arising from this work. More details at
     http://www.quantum-espresso.org/quote

     Parallel version (MPI), running on    16 processors

     MPI processes distributed on     2 nodes
     R & G space division:  proc/nbgrp/npool/nimage =      16
     Waiting for input...
     Reading input from standard input

     Current dimensions of program PWSCF are:
     Max number of different atomic species (ntypx) = 10
     Max number of k-points (npk) =  40000
     Max angular momentum in pseudopotentials (lmaxx) =  3
     Message from routine iosys:
     minimal I/O required, wf_collect reset to FALSE

     IMPORTANT: XC functional enforced from input :
     Exchange-correlation      = VDW-DF ( 1  4  4  0 1 0)
     Any further DFT definition will be discarded
     Please, verify this is what you really want


     Subspace diagonalization in iterative solution of the eigenvalue problem:
     one sub-group per band group will be used
     scalapack distributed-memory algorithm (size of sub-group:  2*  2 procs)

 
     Parallelization info
     --------------------
     sticks:   dense  smooth     PW     G-vecs:    dense   smooth      PW
     Min         565     189     51               159513    30701    4383
     Max         566     190     52               159526    30710    4400
     Sum        9055    3037    823              2552337   491295   70261
 


     bravais-lattice index     =            0
     lattice parameter (alat)  =      14.8058  a.u.
     unit-cell volume          =   10282.4791 (a.u.)^3
     number of atoms/cell      =           66
     number of atomic types    =            3
     number of electrons       =      1056.00
     number of Kohn-Sham states=          634
     kinetic-energy cutoff     =      50.0000  Ry
     charge density cutoff     =     600.0000  Ry
     convergence threshold     =      1.0E-08
     mixing beta               =       0.3000
     number of iterations used =            8  plain     mixing
     Exchange-correlation      = VDW-DF ( 1  4  4  0 1 0)

     celldm(1)=  14.805786  celldm(2)=   0.000000  celldm(3)=   0.000000
     celldm(4)=   0.000000  celldm(5)=   0.000000  celldm(6)=   0.000000

     crystal axes: (cart. coord. in units of alat)
               a(1) = (   1.000000   0.000000   0.000000 )  
               a(2) = (   0.500000   0.866025   0.000000 )  
               a(3) = (   0.000000   0.000000   3.658245 )  

     reciprocal axes: (cart. coord. in units 2 pi/alat)
               b(1) = (  1.000000 -0.577350  0.000000 )  
               b(2) = (  0.000000  1.154701  0.000000 )  
               b(3) = (  0.000000  0.000000  0.273355 )  


     PseudoPot. # 1 for Cu read from file:
     /deac/thonhauserGrp/chakrad/calculations/atomandmolecule-qe6.2.1-i2012-C6modif/all_pbe_UPF_v1.5/cu_pbe_v1.2.uspp.F.UPF
     MD5 check sum: 6e991ff952a84172a2a52a1c1e996048
     Pseudo is Ultrasoft + core correction, Zval = 19.0
     Generated by new atomic code, or converted to UPF format
     Using radial grid of  867 points,  6 beta functions with: 
                l(1) =   0
                l(2) =   0
                l(3) =   1
                l(4) =   1
                l(5) =   2
                l(6) =   2
     Q(r) pseudized with  8 coefficients,  rinner =    1.150   1.150   1.150
                                                       1.150   1.150

     PseudoPot. # 2 for C  read from file:
     /deac/thonhauserGrp/chakrad/calculations/atomandmolecule-qe6.2.1-i2012-C6modif/all_pbe_UPF_v1.5/c_pbe_v1.2.uspp.F.UPF
     MD5 check sum: d1aef80898a10debaa0f26306b886e00
     Pseudo is Ultrasoft + core correction, Zval =  4.0
     Generated by new atomic code, or converted to UPF format
     Using radial grid of  721 points,  4 beta functions with: 
                l(1) =   0
                l(2) =   0
                l(3) =   1
                l(4) =   1
     Q(r) pseudized with  8 coefficients,  rinner =    1.100   1.100   1.100


     PseudoPot. # 3 for H  read from file:
     /deac/thonhauserGrp/chakrad/calculations/atomandmolecule-qe6.2.1-i2012-C6modif/all_pbe_UPF_v1.5/h_pbe_v1.4.uspp.F.UPF
     MD5 check sum: 761ae9a214b05c3daf00ab9f6b793d6f
     Pseudo is Ultrasoft, Zval =  1.0
     Generated by new atomic code, or converted to UPF format
     Using radial grid of  615 points,  2 beta functions with: 
                l(1) =   0
                l(2) =   0
     Q(r) pseudized with  8 coefficients,  rinner =    0.700

     vdW kernel table read from file vdW_kernel_table
     MD5 check sum: cc9485f6209b1096fbef62427c856dab

     atomic species   valence    mass     pseudopotential
        Cu            19.00     1.00000     Cu( 1.00)
        C              4.00     1.00000     C ( 1.00)
        H              1.00     1.00000     H ( 1.00)

     No symmetry found



   Cartesian axes

     site n.     atom                  positions (alat units)
         1           Cu  tau(   1) = (   0.1666667   0.0962250   0.2552686  )
         2           Cu  tau(   2) = (   0.5000000   0.0962250   0.2552686  )
         3           Cu  tau(   3) = (   0.8333333   0.0962250   0.2552686  )
         4           Cu  tau(   4) = (   0.3333333   0.3849002   0.2552686  )
         5           Cu  tau(   5) = (   0.6666667   0.3849002   0.2552686  )
         6           Cu  tau(   6) = (   1.0000000   0.3849002   0.2552686  )
         7           Cu  tau(   7) = (   0.5000000   0.6735753   0.2552686  )
         8           Cu  tau(   8) = (   0.8333333   0.6735753   0.2552686  )
         9           Cu  tau(   9) = (   1.1666667   0.6735753   0.2552686  )
        10           Cu  tau(  10) = (   0.0000000   0.1924501   0.5274341  )
        11           Cu  tau(  11) = (   0.3333333   0.1924501   0.5274341  )
        12           Cu  tau(  12) = (   0.6666667   0.1924501   0.5274341  )
        13           Cu  tau(  13) = (   0.1666667   0.4811252   0.5274341  )
        14           Cu  tau(  14) = (   0.5000000   0.4811252   0.5274341  )
        15           Cu  tau(  15) = (   0.8333333   0.4811252   0.5274341  )
        16           Cu  tau(  16) = (   0.3333333   0.7698004   0.5274341  )
        17           Cu  tau(  17) = (   0.6666667   0.7698004   0.5274341  )
        18           Cu  tau(  18) = (   1.0000000   0.7698004   0.5274341  )
        19           Cu  tau(  19) = (   0.0000000   0.0000000   0.7995997  )
        20           Cu  tau(  20) = (   0.3333333   0.0000000   0.7995997  )
        21           Cu  tau(  21) = (   0.6666667   0.0000000   0.7995997  )
        22           Cu  tau(  22) = (   0.1666667   0.2886751   0.7995997  )
        23           Cu  tau(  23) = (   0.5000000   0.2886751   0.7995997  )
        24           Cu  tau(  24) = (   0.8333333   0.2886751   0.7995997  )
        25           Cu  tau(  25) = (   0.3333333   0.5773503   0.7995997  )
        26           Cu  tau(  26) = (   0.6666667   0.5773503   0.7995997  )
        27           Cu  tau(  27) = (   1.0000000   0.5773503   0.7995997  )
        28           Cu  tau(  28) = (   0.1666659   0.0962246   1.0691130  )
        29           Cu  tau(  29) = (   0.5000000   0.0962241   1.0691104  )
        30           Cu  tau(  30) = (   0.8333341   0.0962246   1.0691130  )
        31           Cu  tau(  31) = (   0.3333325   0.3849006   1.0691104  )
        32           Cu  tau(  32) = (   0.6666675   0.3849006   1.0691104  )
        33           Cu  tau(  33) = (   1.0000000   0.3849003   1.0691143  )
        34           Cu  tau(  34) = (   0.5000000   0.6735762   1.0691130  )
        35           Cu  tau(  35) = (   0.8333334   0.6735753   1.0691143  )
        36           Cu  tau(  36) = (   1.1666666   0.6735753   1.0691143  )
        37           Cu  tau(  37) = (   0.0000000   0.1924486   1.3387540  )
        38           Cu  tau(  38) = (   0.3333330   0.1924499   1.3387465  )
        39           Cu  tau(  39) = (   0.6666670   0.1924499   1.3387465  )
        40           Cu  tau(  40) = (   0.1666676   0.4811247   1.3387504  )
        41           Cu  tau(  41) = (   0.5000000   0.4811256   1.3387465  )
        42           Cu  tau(  42) = (   0.8333324   0.4811247   1.3387504  )
        43           Cu  tau(  43) = (   0.3333346   0.7698011   1.3387540  )
        44           Cu  tau(  44) = (   0.6666654   0.7698011   1.3387540  )
        45           Cu  tau(  45) = (   1.0000000   0.7698014   1.3387504  )
        46           Cu  tau(  46) = (   0.0000000   0.0000000   1.6083750  )
        47           Cu  tau(  47) = (   0.3333333   0.0000005   1.6083624  )
        48           Cu  tau(  48) = (   0.6666667   0.0000005   1.6083624  )
        49           Cu  tau(  49) = (   0.1666671   0.2886748   1.6083624  )
        50           Cu  tau(  50) = (   0.5000000   0.2886751   1.6083553  )
        51           Cu  tau(  51) = (   0.8333329   0.2886748   1.6083624  )
        52           Cu  tau(  52) = (   0.3333338   0.5773500   1.6083624  )
        53           Cu  tau(  53) = (   0.6666662   0.5773500   1.6083624  )
        54           Cu  tau(  54) = (   1.0000000   0.5773503   1.6083570  )
        55           C   tau(  55) = (   0.6567407   0.3959883   1.9720757  )
        56           C   tau(  56) = (   0.5046394   0.3028152   1.9720756  )
        57           C   tau(  57) = (   0.3478975   0.3879497   1.9720757  )
        58           C   tau(  58) = (   0.3432593   0.5662630   1.9720757  )
        59           C   tau(  59) = (   0.4953606   0.6594361   1.9720756  )
        60           C   tau(  60) = (   0.6521025   0.5743016   1.9720757  )
        61           H   tau(  61) = (   0.7789959   0.3295665   1.9721539  )
        62           H   tau(  62) = (   0.5082587   0.1637263   1.9721539  )
        63           H   tau(  63) = (   0.2292624   0.3152577   1.9721539  )
        64           H   tau(  64) = (   0.2210041   0.6326847   1.9721539  )
        65           H   tau(  65) = (   0.4917413   0.7985249   1.9721539  )
        66           H   tau(  66) = (   0.7707376   0.6469936   1.9721539  )

     number of k points=    10  gaussian smearing, width (Ry)=  0.0200
                       cart. coord. in units 2pi/alat
        k(    1) = (   0.0000000   0.0000000   0.0000000), wk =   0.1250000
        k(    2) = (   0.0000000   0.2886751   0.0000000), wk =   0.2500000
        k(    3) = (   0.0000000  -0.5773503   0.0000000), wk =   0.1250000
        k(    4) = (   0.2500000  -0.7216878   0.0000000), wk =   0.2500000
        k(    5) = (  -0.2500000   0.1443376   0.0000000), wk =   0.2500000
        k(    6) = (   0.2500000   0.1443376   0.0000000), wk =   0.2500000
        k(    7) = (   0.5000000  -0.2886751   0.0000000), wk =   0.1250000
        k(    8) = (  -0.5000000  -0.2886751   0.0000000), wk =   0.1250000
        k(    9) = (  -0.2500000  -0.7216878   0.0000000), wk =   0.2500000
        k(   10) = (  -0.5000000  -0.5773503   0.0000000), wk =   0.2500000

     Dense  grid:  2552337 G-vectors     FFT dimensions: ( 120, 120, 432)

     Smooth grid:   491295 G-vectors     FFT dimensions: (  72,  72, 243)

     Estimated max dynamical RAM per process >       1.14 GB

     Estimated total dynamical RAM >      18.26 GB

     Initial potential from superposition of free atoms
     Check: negative starting charge=   -0.000818

     starting charge 1001.99960, renormalised to 1056.00000

     negative rho (up, down):  8.620E-04 0.000E+00


     %%%%%%%%%%%%%%%%%%%%%%%%%%%%%%%%%%%%%%%%%%%%%%%%%%%%%%%%%%%%%%%%%%%%%%%%
     %                                                                      %
     % You are using vdW-DF, which was implemented by the Thonhauser group. %
     % Please cite the following two papers that made this development      %
     % possible and the two reviews that describe the various versions:     %
     %                                                                      %
     %   T. Thonhauser et al., PRL 115, 136402 (2015).                      %
     %   T. Thonhauser et al., PRB 76, 125112 (2007).                       %
     %   K. Berland et al., Rep. Prog. Phys. 78, 066501 (2015).             %
     %   D.C. Langreth et al., J. Phys.: Condens. Matter 21, 084203 (2009). %
     %                                                                      %
     %                                                                      %
     % If you are calculating the stress with vdW-DF, please also cite:     %
     %                                                                      %
     %   R. Sabatini et al., J. Phys.: Condens. Matter 24, 424209 (2012).   %
     %                                                                      %
     %%%%%%%%%%%%%%%%%%%%%%%%%%%%%%%%%%%%%%%%%%%%%%%%%%%%%%%%%%%%%%%%%%%%%%%%


     Starting wfcs are  732 randomized atomic wfcs

     total cpu time spent up to now is       82.9 secs

     Self-consistent Calculation

     iteration #  1     ecut=    50.00 Ry     beta= 0.30
     Davidson diagonalization with overlap
     ethr =  1.00E-02,  avg # of iterations =  6.3

     negative rho (up, down):  5.166E-04 0.000E+00

     total cpu time spent up to now is     1524.6 secs

     total energy              =  -18821.13961204 Ry
     Harris-Foulkes estimate   =  -22012.00570456 Ry
     estimated scf accuracy    <    6305.87088653 Ry

     iteration #  2     ecut=    50.00 Ry     beta= 0.30
     Davidson diagonalization with overlap
     ethr =  1.00E-02,  avg # of iterations = 18.5

     negative rho (up, down):  5.539E-04 0.000E+00

     total cpu time spent up to now is     4386.1 secs

     total energy              =  -19217.52820353 Ry
     Harris-Foulkes estimate   =  -39124.95272111 Ry
     estimated scf accuracy    <  277895.19962039 Ry

     iteration #  3     ecut=    50.00 Ry     beta= 0.30
     Davidson diagonalization with overlap
     ethr =  1.00E-02,  avg # of iterations =  7.0

     negative rho (up, down):  6.296E-04 0.000E+00

     total cpu time spent up to now is     5871.5 secs

     total energy              =  -21483.71554547 Ry
     Harris-Foulkes estimate   =  -23530.67868252 Ry
     estimated scf accuracy    <   59062.99715968 Ry

     iteration #  4     ecut=    50.00 Ry     beta= 0.30
     Davidson diagonalization with overlap
     ethr =  1.00E-02,  avg # of iterations =  8.2

     negative rho (up, down):  7.506E-04 0.000E+00

     total cpu time spent up to now is     7736.4 secs

     total energy              =  -21646.44974258 Ry
     Harris-Foulkes estimate   =  -22142.63244829 Ry
     estimated scf accuracy    <   15596.62118707 Ry

     iteration #  5     ecut=    50.00 Ry     beta= 0.30
     Davidson diagonalization with overlap
     ethr =  1.00E-02,  avg # of iterations =  6.4

     negative rho (up, down):  8.092E-04 0.000E+00

     total cpu time spent up to now is     9067.4 secs

     total energy              =  -21801.92706073 Ry
     Harris-Foulkes estimate   =  -22235.93202594 Ry
     estimated scf accuracy    <    8897.68731976 Ry

     iteration #  6     ecut=    50.00 Ry     beta= 0.30
     Davidson diagonalization with overlap
     ethr =  1.00E-02,  avg # of iterations =  7.0

     negative rho (up, down):  9.643E-04 0.000E+00

     total cpu time spent up to now is    10200.3 secs

     total energy              =  -21902.53930252 Ry
     Harris-Foulkes estimate   =  -21970.82161031 Ry
     estimated scf accuracy    <    2362.48293906 Ry

     iteration #  7     ecut=    50.00 Ry     beta= 0.30
     Davidson diagonalization with overlap
     ethr =  1.00E-02,  avg # of iterations =  2.7

     negative rho (up, down):  1.141E-03 0.000E+00

     total cpu time spent up to now is    10448.9 secs

     total energy              =  -21914.66102957 Ry
     Harris-Foulkes estimate   =  -21939.64450333 Ry
     estimated scf accuracy    <     273.16811629 Ry

     iteration #  8     ecut=    50.00 Ry     beta= 0.30
     Davidson diagonalization with overlap
     ethr =  1.00E-02,  avg # of iterations =  2.4

     negative rho (up, down):  1.265E-03 0.000E+00

     total cpu time spent up to now is    10692.2 secs

     total energy              =  -21917.27162829 Ry
     Harris-Foulkes estimate   =  -21921.62984944 Ry
     estimated scf accuracy    <     136.27443864 Ry

     iteration #  9     ecut=    50.00 Ry     beta= 0.30
     Davidson diagonalization with overlap
     ethr =  1.00E-02,  avg # of iterations =  1.5

     negative rho (up, down):  1.397E-03 0.000E+00

     total cpu time spent up to now is    10886.4 secs

     total energy              =  -21912.28257106 Ry
     Harris-Foulkes estimate   =  -21918.54337762 Ry
     estimated scf accuracy    <      85.47975938 Ry

     iteration # 10     ecut=    50.00 Ry     beta= 0.30
     Davidson diagonalization with overlap
     ethr =  8.09E-03,  avg # of iterations =  1.4

     negative rho (up, down):  1.764E-03 0.000E+00

     total cpu time spent up to now is    11076.6 secs

     total energy              =  -21890.77858235 Ry
     Harris-Foulkes estimate   =  -21913.89811041 Ry
     estimated scf accuracy    <     141.95949118 Ry

     iteration # 11     ecut=    50.00 Ry     beta= 0.30
     Davidson diagonalization with overlap
     ethr =  8.09E-03,  avg # of iterations =  4.7

     negative rho (up, down):  6.352E-08 0.000E+00

     total cpu time spent up to now is    11579.1 secs

     total energy              =  -21894.23816452 Ry
     Harris-Foulkes estimate   =  -21941.21313248 Ry
     estimated scf accuracy    <    1129.59417424 Ry

     iteration # 12     ecut=    50.00 Ry     beta= 0.30
     Davidson diagonalization with overlap
     ethr =  8.09E-03,  avg # of iterations =  2.3

     negative rho (up, down):  9.455E-07 0.000E+00

     total cpu time spent up to now is    11804.5 secs

     total energy              =  -21898.02930388 Ry
     Harris-Foulkes estimate   =  -21912.15241139 Ry
     estimated scf accuracy    <     234.30015802 Ry

     iteration # 13     ecut=    50.00 Ry     beta= 0.30
     Davidson diagonalization with overlap
     ethr =  8.09E-03,  avg # of iterations =  2.0

     negative rho (up, down):  1.281E-06 0.000E+00

     total cpu time spent up to now is    12018.9 secs

     total energy              =  -21900.88918977 Ry
     Harris-Foulkes estimate   =  -21905.02910284 Ry
     estimated scf accuracy    <      19.64857324 Ry

     iteration # 14     ecut=    50.00 Ry     beta= 0.30
     Davidson diagonalization with overlap
     ethr =  1.86E-03,  avg # of iterations =  4.6

     negative rho (up, down):  2.969E-06 0.000E+00

     total cpu time spent up to now is    12397.5 secs

     total energy              =  -21903.46373119 Ry
     Harris-Foulkes estimate   =  -21905.01555395 Ry
     estimated scf accuracy    <      26.46290408 Ry

     iteration # 15     ecut=    50.00 Ry     beta= 0.30
     Davidson diagonalization with overlap
     ethr =  1.86E-03,  avg # of iterations =  2.2

     negative rho (up, down):  3.301E-06 0.000E+00

     total cpu time spent up to now is    12624.4 secs

     total energy              =  -21903.78479146 Ry
     Harris-Foulkes estimate   =  -21904.17643915 Ry
     estimated scf accuracy    <       5.27871026 Ry

     iteration # 16     ecut=    50.00 Ry     beta= 0.30
     Davidson diagonalization with overlap
     ethr =  5.00E-04,  avg # of iterations =  5.9

     negative rho (up, down):  2.943E-06 0.000E+00

     total cpu time spent up to now is    12992.9 secs

     total energy              =  -21903.73812234 Ry
     Harris-Foulkes estimate   =  -21904.08967661 Ry
     estimated scf accuracy    <       2.49839132 Ry

     iteration # 17     ecut=    50.00 Ry     beta= 0.30
     Davidson diagonalization with overlap
     ethr =  2.37E-04,  avg # of iterations =  5.4

     negative rho (up, down):  7.178E-06 0.000E+00

     total cpu time spent up to now is    13323.8 secs

     total energy              =  -21903.66488367 Ry
     Harris-Foulkes estimate   =  -21903.86309419 Ry
     estimated scf accuracy    <       1.68816297 Ry

     iteration # 18     ecut=    50.00 Ry     beta= 0.30
     Davidson diagonalization with overlap
     ethr =  1.60E-04,  avg # of iterations =  8.6

     negative rho (up, down):  1.032E-05 0.000E+00

     total cpu time spent up to now is    13797.9 secs

     total energy              =  -21903.73589751 Ry
     Harris-Foulkes estimate   =  -21903.82138989 Ry
     estimated scf accuracy    <       1.66281493 Ry

     iteration # 19     ecut=    50.00 Ry     beta= 0.30
     Davidson diagonalization with overlap
     ethr =  1.57E-04,  avg # of iterations =  2.3

     negative rho (up, down):  2.479E-05 0.000E+00

     total cpu time spent up to now is    14031.9 secs

     total energy              =  -21903.75680264 Ry
     Harris-Foulkes estimate   =  -21903.77659222 Ry
     estimated scf accuracy    <       0.24333000 Ry

     iteration # 20     ecut=    50.00 Ry     beta= 0.30
     Davidson diagonalization with overlap
     ethr =  2.30E-05,  avg # of iterations =  7.2

     negative rho (up, down):  1.120E-04 0.000E+00

     total cpu time spent up to now is    14460.6 secs

     total energy              =  -21903.73507978 Ry
     Harris-Foulkes estimate   =  -21903.76377642 Ry
     estimated scf accuracy    <       0.29388459 Ry

     iteration # 21     ecut=    50.00 Ry     beta= 0.30
     Davidson diagonalization with overlap
     ethr =  2.30E-05,  avg # of iterations =  7.7

     negative rho (up, down):  1.312E-04 0.000E+00

     total cpu time spent up to now is    14925.7 secs

     total energy              =  -21903.73469156 Ry
     Harris-Foulkes estimate   =  -21903.75499814 Ry
     estimated scf accuracy    <       0.08335480 Ry

     iteration # 22     ecut=    50.00 Ry     beta= 0.30
     Davidson diagonalization with overlap
     ethr =  7.89E-06,  avg # of iterations =  5.9

     negative rho (up, down):  1.952E-04 0.000E+00

     total cpu time spent up to now is    15308.7 secs

     total energy              =  -21903.74035697 Ry
     Harris-Foulkes estimate   =  -21903.75390298 Ry
     estimated scf accuracy    <       0.11395643 Ry

     iteration # 23     ecut=    50.00 Ry     beta= 0.30
     Davidson diagonalization with overlap
     ethr =  7.89E-06,  avg # of iterations =  4.4

     negative rho (up, down):  2.603E-04 0.000E+00

     total cpu time spent up to now is    15624.1 secs

     total energy              =  -21903.74576418 Ry
     Harris-Foulkes estimate   =  -21903.74739873 Ry
     estimated scf accuracy    <       0.00861205 Ry

     iteration # 24     ecut=    50.00 Ry     beta= 0.30
     Davidson diagonalization with overlap
     ethr =  8.16E-07,  avg # of iterations =  5.6

     negative rho (up, down):  3.927E-04 0.000E+00

     total cpu time spent up to now is    15983.3 secs

     total energy              =  -21903.74640791 Ry
     Harris-Foulkes estimate   =  -21903.74701991 Ry
     estimated scf accuracy    <       0.00602261 Ry

     iteration # 25     ecut=    50.00 Ry     beta= 0.30
     Davidson diagonalization with overlap
     ethr =  5.70E-07,  avg # of iterations =  4.2

     negative rho (up, down):  6.516E-04 0.000E+00

     total cpu time spent up to now is    16288.8 secs

     total energy              =  -21903.74679078 Ry
     Harris-Foulkes estimate   =  -21903.74689982 Ry
     estimated scf accuracy    <       0.00270081 Ry

     iteration # 26     ecut=    50.00 Ry     beta= 0.30
     Davidson diagonalization with overlap
     ethr =  2.56E-07,  avg # of iterations =  7.6

     negative rho (up, down):  1.204E-03 0.000E+00

     total cpu time spent up to now is    16742.7 secs

     total energy              =  -21903.74700987 Ry
     Harris-Foulkes estimate   =  -21903.74699658 Ry
     estimated scf accuracy    <       0.00116048 Ry

     iteration # 27     ecut=    50.00 Ry     beta= 0.30
     Davidson diagonalization with overlap
     ethr =  1.10E-07,  avg # of iterations =  9.1

     negative rho (up, down):  1.621E-03 0.000E+00

     total cpu time spent up to now is    17247.2 secs

     total energy              =  -21903.74710003 Ry
     Harris-Foulkes estimate   =  -21903.74708863 Ry
     estimated scf accuracy    <       0.00018844 Ry

     iteration # 28     ecut=    50.00 Ry     beta= 0.30
     Davidson diagonalization with overlap
     ethr =  1.78E-08,  avg # of iterations =  3.0

     negative rho (up, down):  1.983E-03 0.000E+00

     total cpu time spent up to now is    17511.4 secs

     total energy              =  -21903.74711773 Ry
     Harris-Foulkes estimate   =  -21903.74711959 Ry
     estimated scf accuracy    <       0.00006567 Ry

     iteration # 29     ecut=    50.00 Ry     beta= 0.30
     Davidson diagonalization with overlap
     ethr =  6.22E-09,  avg # of iterations =  3.8

     negative rho (up, down):  2.160E-03 0.000E+00

     total cpu time spent up to now is    17787.0 secs

     total energy              =  -21903.74712425 Ry
     Harris-Foulkes estimate   =  -21903.74712881 Ry
     estimated scf accuracy    <       0.00004780 Ry

     iteration # 30     ecut=    50.00 Ry     beta= 0.30
     Davidson diagonalization with overlap
     ethr =  4.53E-09,  avg # of iterations =  3.0

     negative rho (up, down):  2.288E-03 0.000E+00

     total cpu time spent up to now is    18030.7 secs

     total energy              =  -21903.74712688 Ry
     Harris-Foulkes estimate   =  -21903.74712908 Ry
     estimated scf accuracy    <       0.00003110 Ry

     iteration # 31     ecut=    50.00 Ry     beta= 0.30
     Davidson diagonalization with overlap
     ethr =  2.95E-09,  avg # of iterations =  1.6

     negative rho (up, down):  2.492E-03 0.000E+00

     total cpu time spent up to now is    18233.3 secs

     total energy              =  -21903.74712668 Ry
     Harris-Foulkes estimate   =  -21903.74712993 Ry
     estimated scf accuracy    <       0.00005015 Ry

     iteration # 32     ecut=    50.00 Ry     beta= 0.30
     Davidson diagonalization with overlap
     ethr =  2.95E-09,  avg # of iterations =  2.2

     negative rho (up, down):  2.584E-03 0.000E+00

     total cpu time spent up to now is    18452.4 secs

     total energy              =  -21903.74712739 Ry
     Harris-Foulkes estimate   =  -21903.74712839 Ry
     estimated scf accuracy    <       0.00000348 Ry

     iteration # 33     ecut=    50.00 Ry     beta= 0.30
     Davidson diagonalization with overlap
     ethr =  3.29E-10,  avg # of iterations =  2.3

     negative rho (up, down):  2.625E-03 0.000E+00

     total cpu time spent up to now is    18684.9 secs

     total energy              =  -21903.74712727 Ry
     Harris-Foulkes estimate   =  -21903.74712779 Ry
     estimated scf accuracy    <       0.00000104 Ry

     iteration # 34     ecut=    50.00 Ry     beta= 0.30
     Davidson diagonalization with overlap
     ethr =  9.83E-11,  avg # of iterations =  2.0

     negative rho (up, down):  2.623E-03 0.000E+00

     total cpu time spent up to now is    18908.5 secs

     total energy              =  -21903.74712733 Ry
     Harris-Foulkes estimate   =  -21903.74712745 Ry
     estimated scf accuracy    <       0.00000103 Ry

     iteration # 35     ecut=    50.00 Ry     beta= 0.30
     Davidson diagonalization with overlap
     ethr =  9.75E-11,  avg # of iterations =  1.0

     negative rho (up, down):  2.638E-03 0.000E+00

     total cpu time spent up to now is    19101.7 secs

     total energy              =  -21903.74712726 Ry
     Harris-Foulkes estimate   =  -21903.74712744 Ry
     estimated scf accuracy    <       0.00000072 Ry

     iteration # 36     ecut=    50.00 Ry     beta= 0.30
     Davidson diagonalization with overlap
     ethr =  6.83E-11,  avg # of iterations =  1.1

     negative rho (up, down):  2.651E-03 0.000E+00

     total cpu time spent up to now is    19298.3 secs

     total energy              =  -21903.74712715 Ry
     Harris-Foulkes estimate   =  -21903.74712730 Ry
     estimated scf accuracy    <       0.00000014 Ry

     iteration # 37     ecut=    50.00 Ry     beta= 0.30
     Davidson diagonalization with overlap
     ethr =  1.33E-11,  avg # of iterations =  2.0

     negative rho (up, down):  2.656E-03 0.000E+00

     total cpu time spent up to now is    19524.1 secs

     total energy              =  -21903.74712711 Ry
     Harris-Foulkes estimate   =  -21903.74712717 Ry
     estimated scf accuracy    <       0.00000006 Ry

     iteration # 38     ecut=    50.00 Ry     beta= 0.30
     Davidson diagonalization with overlap
     ethr =  6.02E-12,  avg # of iterations =  2.0

     negative rho (up, down):  2.659E-03 0.000E+00

     total cpu time spent up to now is    19749.7 secs

     total energy              =  -21903.74712708 Ry
     Harris-Foulkes estimate   =  -21903.74712711 Ry
     estimated scf accuracy    <       0.00000001 Ry

     iteration # 39     ecut=    50.00 Ry     beta= 0.30
     Davidson diagonalization with overlap
     ethr =  1.11E-12,  avg # of iterations =  2.0

     negative rho (up, down):  2.661E-03 0.000E+00

     total cpu time spent up to now is    19976.9 secs

     End of self-consistent calculation

          k = 0.0000 0.0000 0.0000 ( 61453 PWs)   bands (ev):

  -107.7049-107.6953-107.6905-107.6905-107.6893-107.6887-107.6883-107.6883
  -107.6868-107.6860-107.6860-107.6852-107.6852-107.6850-107.6844-107.6844
  -107.6838-107.6825-107.6818-107.6817-107.6807-107.6788-107.6788-107.6763
  -107.6755-107.6742-107.6742-107.6720-107.6699-107.6699-107.6697-107.6697
  -107.6683-107.6675-107.6634-107.6629-107.5447-107.5421-107.5421-107.5016
  -107.4990-107.4990-107.4786-107.4762-107.4762-107.4350-107.4305-107.4305
  -107.4303-107.4293-107.4293-107.4292-107.4270-107.4270 -65.1515 -65.1427
   -65.1370 -65.1370 -65.1363 -65.1363 -65.1352 -65.1308 -65.1308 -65.1304
   -65.1287 -65.1287 -65.1278 -65.1272 -65.1272 -65.1256 -65.1248 -65.1248
   -65.1244 -65.1238 -65.1202 -65.1202 -65.1175 -65.1158 -65.1155 -65.1155
   -65.1142 -65.1142 -65.1138 -65.1128 -65.1128 -65.1118 -65.1118 -65.1107
   -65.1105 -65.1089 -65.1089 -65.1085 -65.1059 -65.1059 -65.1052 -65.1041
   -65.1036 -65.1036 -65.1027 -65.1027 -65.1009 -65.0993 -65.0993 -65.0977
   -65.0969 -65.0967 -65.0967 -65.0964 -65.0964 -65.0953 -65.0905 -65.0894
   -65.0894 -65.0887 -65.0887 -65.0875 -65.0872 -65.0872 -65.0870 -65.0866
   -65.0866 -65.0846 -65.0844 -65.0844 -65.0834 -65.0834 -65.0833 -65.0815
   -65.0801 -65.0789 -65.0787 -65.0787 -65.0783 -65.0780 -65.0780 -65.0761
   -65.0761 -65.0758 -65.0749 -65.0749 -65.0742 -65.0723 -65.0722 -65.0722
   -65.0717 -65.0705 -65.0705 -65.0703 -65.0684 -65.0684 -65.0644 -65.0644
   -65.0640 -65.0625 -65.0622 -65.0622 -65.0610 -65.0610 -65.0587 -65.0587
   -65.0521 -65.0521 -64.9898 -64.9898 -64.9888 -64.9776 -64.9682 -64.9682
   -64.9516 -64.9490 -64.9490 -64.9363 -64.9339 -64.9339 -64.9300 -64.9295
   -64.9202 -64.9202 -64.9160 -64.9160 -64.9032 -64.8942 -64.8942 -64.8901
   -64.8896 -64.8896 -64.8892 -64.8887 -64.8887 -64.8865 -64.8865 -64.8865
   -64.8859 -64.8834 -64.8811 -64.8811 -64.8579 -64.8557 -64.8557 -64.8543
   -64.8543 -64.8541 -64.8539 -64.8539 -64.8528 -64.8416 -64.8416 -64.8067
   -64.8025 -64.8025 -64.8023 -64.8013 -64.8013 -64.8010 -64.7990 -64.7990
   -13.1586 -10.3928 -10.3926  -6.7768  -6.7762  -4.8465  -3.9631  -3.3526
    -3.2233  -2.8707  -2.4325  -2.2052  -2.2051  -1.5061  -1.0655  -0.9980
    -0.9980  -0.9965  -0.9965  -0.9962  -0.9734  -0.6012  -0.6012  -0.5970
    -0.5970  -0.5945  -0.5832  -0.3490  -0.2687  -0.2685  -0.1100  -0.1100
    -0.0991  -0.0969  -0.0911  -0.0911  -0.0728   0.3343   0.3343   0.3532
     0.3559   0.3559   0.3643   0.6792   0.6792   0.7024   0.7028   0.7028
     0.7095   0.8268   0.8268   0.8319   0.8335   0.8335   0.8359   0.8758
     0.8758   0.8809   0.8809   0.8815   0.8835   0.9139   0.9139   0.9278
     0.9278   0.9326   0.9328   1.0287   1.0294   1.0338   1.0338   1.0430
     1.0430   1.0492   1.0539   1.0539   1.0571   1.0720   1.0720   1.0737
     1.0739   1.1025   1.1025   1.1664   1.1664   1.1932   1.1932   1.2575
     1.2575   1.2629   1.2649   1.2649   1.2687   1.3110   1.3110   1.3730
     1.3731   1.5001   1.5001   1.5032   1.5045   1.5454   1.5454   1.6426
     1.6426   1.6511   1.6511   1.6590   1.6590   1.6605   1.6627   1.6882
     1.6882   1.6917   1.6918   1.7054   1.7203   1.7727   1.7727   1.7739
     1.7754   1.7831   1.7831   1.7856   1.7859   1.8173   1.8173   1.8389
     1.8539   1.8539   1.8555   1.8560   1.8560   1.8607   1.8739   1.8739
     1.9029   1.9029   1.9109   1.9127   1.9127   1.9134   1.9170   1.9170
     1.9342   1.9345   1.9345   1.9363   1.9370   1.9370   1.9428   1.9428
     1.9498   2.0064   2.0064   2.0137   2.0158   2.0529   2.0529   2.0531
     2.0607   2.0678   2.0678   2.0834   2.0834   2.1008   2.1008   2.1153
     2.1156   2.1320   2.1321   2.1321   2.1358   2.1366   2.1366   2.1370
     2.1370   2.3055   2.3055   2.3085   2.3157   2.3572   2.3572   2.3840
     2.3860   2.3860   2.3903   2.3903   2.3913   2.4243   2.4243   2.4340
     2.4400   2.4718   2.4718   2.4733   2.4733   2.4879   2.4879   2.4985
     2.4987   2.5604   2.5641   2.5641   2.5800   2.5800   2.5850   2.5893
     2.5893   2.5972   2.5972   2.6059   2.6122   2.6122   2.6149   2.6201
     2.6201   2.6207   2.6207   2.6220   2.6338   2.6338   2.6922   2.6922
     2.7603   2.7612   2.7612   2.7634   2.7637   2.7637   2.8136   2.8149
     2.8149   2.8166   2.8236   2.8236   2.8240   2.8251   2.8259   2.8259
     2.8299   2.8299   2.8724   2.8724   2.8855   2.8887   2.8887   2.8912
     2.8912   2.8924   2.9027   2.9027   2.9027   2.9043   2.9048   2.9048
     2.9188   2.9207   2.9207   2.9225   2.9227   2.9227   2.9293   2.9293
     2.9619   2.9682   2.9682   2.9726   2.9726   2.9766   2.9766   2.9807
     2.9983   2.9989   3.0189   3.0189   3.0189   3.0201   3.0201   3.0212
     3.0386   3.0386   3.0438   3.0438   3.0578   3.0578   3.0726   3.0749
     3.0780   3.0780   3.0786   3.0822   3.0822   3.0838   3.1040   3.1040
     3.1065   3.1151   3.1151   3.1226   3.1632   3.1636   3.1636   3.1669
     3.1669   3.1671   3.1927   3.1927   3.9976   4.0718   4.0718   4.0837
     4.1689   4.1860   4.1860   4.6836   5.4662   5.4662   5.5071   5.5890
     5.6353   5.6354   6.7368   6.7370   6.9787   7.2523   7.3589   7.4166
     7.4167   7.4871   7.4871   7.9619   7.9619   7.9631   7.9636   7.9806
     7.9806   8.1922   8.3514   8.3514   8.3777   8.3777   8.4397   8.7401
     8.7504   8.8158   8.8946   8.8947   8.9923   9.0039   9.0171   9.2605
     9.2605   9.3699   9.4586   9.6388   9.6388   9.6588   9.6588   9.9062
     9.9063   9.9206  10.0204  10.0263  10.5434  10.5680  10.7133  10.7133
    10.7977  10.7977  10.8197  10.8197  10.9975  10.9975  11.0591  11.0591
    11.0816  11.1432  11.2039  11.3528  11.3529  11.4559  11.4559  11.4752
    11.5557  11.6085  11.6086  11.7692  11.8304  11.8304  11.9018  11.9018
    11.9676  12.0111  12.0111  12.0495  12.0495  12.0571  12.1284  12.2335
    12.2335  12.2928  12.3243  12.3959  12.3960  12.6213  12.6213  12.7998
    12.8897  12.8898  12.8913  13.0532  13.0532  13.0804  13.0867  13.1386
    13.2239  13.2384

          k = 0.0000 0.2887 0.0000 ( 61417 PWs)   bands (ev):

  -107.7049-107.6949-107.6914-107.6907-107.6895-107.6884-107.6879-107.6878
  -107.6867-107.6861-107.6860-107.6852-107.6852-107.6847-107.6845-107.6844
  -107.6837-107.6824-107.6822-107.6818-107.6808-107.6788-107.6787-107.6763
  -107.6753-107.6742-107.6741-107.6722-107.6706-107.6704-107.6694-107.6691
  -107.6681-107.6677-107.6634-107.6629-107.5447-107.5421-107.5421-107.5016
  -107.4990-107.4990-107.4786-107.4762-107.4761-107.4346-107.4317-107.4307
  -107.4304-107.4291-107.4289-107.4284-107.4272-107.4271 -65.1504 -65.1433
   -65.1395 -65.1385 -65.1378 -65.1372 -65.1365 -65.1356 -65.1339 -65.1331
   -65.1318 -65.1314 -65.1305 -65.1299 -65.1270 -65.1257 -65.1246 -65.1231
   -65.1220 -65.1218 -65.1203 -65.1201 -65.1200 -65.1191 -65.1179 -65.1177
   -65.1171 -65.1156 -65.1126 -65.1122 -65.1111 -65.1098 -65.1098 -65.1091
   -65.1086 -65.1073 -65.1072 -65.1056 -65.1047 -65.1044 -65.1027 -65.1023
   -65.1010 -65.0992 -65.0992 -65.0983 -65.0980 -65.0979 -65.0967 -65.0963
   -65.0950 -65.0947 -65.0940 -65.0934 -65.0930 -65.0917 -65.0912 -65.0912
   -65.0895 -65.0893 -65.0889 -65.0887 -65.0881 -65.0875 -65.0862 -65.0857
   -65.0843 -65.0840 -65.0833 -65.0830 -65.0822 -65.0819 -65.0814 -65.0811
   -65.0809 -65.0803 -65.0799 -65.0792 -65.0787 -65.0781 -65.0779 -65.0774
   -65.0769 -65.0759 -65.0757 -65.0749 -65.0744 -65.0740 -65.0736 -65.0733
   -65.0726 -65.0712 -65.0706 -65.0700 -65.0697 -65.0673 -65.0673 -65.0671
   -65.0657 -65.0641 -65.0634 -65.0629 -65.0621 -65.0620 -65.0598 -65.0593
   -65.0561 -65.0530 -64.9919 -64.9910 -64.9900 -64.9777 -64.9674 -64.9654
   -64.9516 -64.9483 -64.9471 -64.9363 -64.9339 -64.9339 -64.9316 -64.9267
   -64.9208 -64.9207 -64.9158 -64.9136 -64.9042 -64.9008 -64.8969 -64.8954
   -64.8951 -64.8948 -64.8940 -64.8937 -64.8834 -64.8822 -64.8818 -64.8811
   -64.8811 -64.8765 -64.8761 -64.8734 -64.8581 -64.8580 -64.8578 -64.8568
   -64.8557 -64.8557 -64.8540 -64.8535 -64.8498 -64.8459 -64.8427 -64.8063
   -64.8036 -64.8027 -64.8023 -64.8011 -64.8009 -64.8004 -64.7991 -64.7991
   -13.1578 -10.3963 -10.3933  -6.7795  -6.7720  -4.8185  -3.7500  -3.1953
    -3.1451  -2.8744  -2.2857  -2.2153  -2.2136  -2.1416  -1.6235  -1.4562
    -1.4350  -1.3810  -0.9867  -0.9572  -0.9140  -0.7715  -0.3801  -0.3784
    -0.3339  -0.3079  -0.2616  -0.2605  -0.1961  -0.1674  -0.0952  -0.0945
     0.0384   0.0703   0.0808   0.1758   0.1771   0.1791   0.3373   0.3602
     0.3812   0.4463   0.4478   0.6173   0.6390   0.6734   0.6737   0.6859
     0.7099   0.7100   0.7208   0.7271   0.7599   0.7745   0.7790   0.7806
     0.7897   0.7910   0.8335   0.8338   0.8665   0.8675   0.8933   0.8985
     0.8998   0.9469   0.9537   0.9664   0.9665   0.9833   0.9853   0.9964
     0.9976   1.0167   1.0186   1.0741   1.1298   1.1395   1.1405   1.1510
     1.1604   1.1736   1.1802   1.2016   1.2022   1.2439   1.2467   1.2547
     1.2786   1.3091   1.3261   1.3262   1.3477   1.3644   1.3817   1.3888
     1.4134   1.4190   1.4337   1.4535   1.4661   1.4710   1.5002   1.5294
     1.5313   1.5457   1.5495   1.5614   1.5911   1.6074   1.6143   1.6211
     1.6247   1.6357   1.6713   1.6748   1.7025   1.7322   1.7483   1.7543
     1.7548   1.7678   1.7697   1.7734   1.8034   1.8115   1.8149   1.8271
     1.8278   1.8385   1.8417   1.8463   1.8616   1.8662   1.8687   1.8874
     1.8990   1.9029   1.9041   1.9070   1.9130   1.9212   1.9263   1.9325
     1.9336   1.9400   1.9434   1.9439   1.9664   1.9720   1.9736   1.9837
     1.9843   2.0041   2.0049   2.0051   2.0076   2.0176   2.0190   2.0384
     2.0583   2.0609   2.0717   2.0828   2.0834   2.0860   2.0868   2.0951
     2.1122   2.1131   2.1305   2.1415   2.1449   2.1506   2.1670   2.1678
     2.1830   2.1887   2.1954   2.1986   2.2195   2.2291   2.2295   2.2495
     2.2702   2.2706   2.3010   2.3180   2.3205   2.3228   2.3270   2.3306
     2.3784   2.4017   2.4192   2.4224   2.4273   2.4315   2.4479   2.4494
     2.4791   2.4799   2.4904   2.4924   2.4934   2.4974   2.5086   2.5121
     2.5566   2.5619   2.5670   2.5684   2.5741   2.5976   2.6017   2.6020
     2.6069   2.6083   2.6370   2.6515   2.6532   2.6548   2.6617   2.6693
     2.6800   2.6807   2.6958   2.7004   2.7061   2.7065   2.7169   2.7209
     2.7316   2.7393   2.7882   2.7959   2.7986   2.8212   2.8243   2.8368
     2.8422   2.8430   2.8445   2.8453   2.8549   2.8610   2.8629   2.8737
     2.8750   2.8825   2.8846   2.9104   2.9297   2.9297   2.9314   2.9334
     2.9434   2.9477   2.9585   2.9645   2.9728   2.9738   3.0152   3.0154
     3.0232   3.0237   3.0268   3.0372   3.0393   3.0451   3.0468   3.0498
     3.0534   3.0545   3.0636   3.0638   3.0702   3.0722   3.0795   3.0839
     3.1025   3.1105   3.1117   3.1135   3.1150   3.1178   3.1184   3.1198
     3.1427   3.1511   3.1639   3.1656   3.1664   3.1764   3.1824   3.1905
     3.2188   3.2773   3.3389   3.3951   3.4250   3.4271   3.5281   3.5854
     3.5865   3.8379   3.8775   3.8902   3.9011   3.9548   4.1980   4.4585
     4.6152   4.8510   4.8659   5.0912   5.1838   5.2196   5.2702   5.9547
     5.9575   6.1772   6.2100   6.3274   6.3465   6.3487   6.5261   6.7473
     6.8046   6.9542   7.0084   7.0746   7.1629   7.2916   7.5724   7.8524
     7.8789   7.8980   8.0444   8.1501   8.2985   8.3449   8.3666   8.4587
     8.5436   8.7295   8.8225   8.8272   8.9571   9.0022   9.3081   9.3661
     9.3750   9.4852   9.5696   9.7241   9.8139   9.8675   9.9055  10.0031
    10.0465  10.0929  10.1386  10.2237  10.2832  10.4100  10.5205  10.5276
    10.5759  10.5831  10.6133  10.7281  10.7558  10.8145  10.8386  10.8574
    10.9939  11.0406  11.0510  11.1099  11.1401  11.2913  11.4677  11.4824
    11.5171  11.5627  11.6217  11.7283  11.7814  11.8293  11.8676  12.0218
    12.0805  12.1678  12.2343  12.3149  12.4029  12.4281  12.5134  12.5259
    12.5791  12.6434  12.7248  12.7802  12.8370  12.8413  12.9281  12.9425
    12.9959  13.0845  13.1404  13.1576  13.2209  13.2892  13.3546  13.4049
    13.4508  13.5151

          k = 0.0000-0.5774 0.0000 ( 61408 PWs)   bands (ev):

  -107.7049-107.6942-107.6925-107.6909-107.6896-107.6881-107.6875-107.6874
  -107.6872-107.6859-107.6858-107.6856-107.6853-107.6846-107.6843-107.6841
  -107.6838-107.6827-107.6823-107.6818-107.6808-107.6787-107.6785-107.6763
  -107.6751-107.6742-107.6741-107.6724-107.6709-107.6706-107.6692-107.6683
  -107.6683-107.6679-107.6634-107.6629-107.5447-107.5421-107.5421-107.5016
  -107.4990-107.4989-107.4787-107.4762-107.4761-107.4337-107.4330-107.4309
  -107.4306-107.4286-107.4285-107.4281-107.4274-107.4273 -65.1488 -65.1446
   -65.1424 -65.1413 -65.1395 -65.1376 -65.1367 -65.1360 -65.1350 -65.1345
   -65.1341 -65.1336 -65.1331 -65.1320 -65.1296 -65.1268 -65.1235 -65.1232
   -65.1230 -65.1221 -65.1215 -65.1211 -65.1210 -65.1206 -65.1190 -65.1177
   -65.1174 -65.1160 -65.1124 -65.1106 -65.1099 -65.1098 -65.1092 -65.1081
   -65.1074 -65.1047 -65.1035 -65.1027 -65.1009 -65.1004 -65.1004 -65.1001
   -65.0994 -65.0984 -65.0979 -65.0977 -65.0971 -65.0956 -65.0953 -65.0940
   -65.0933 -65.0928 -65.0927 -65.0924 -65.0916 -65.0914 -65.0901 -65.0897
   -65.0881 -65.0875 -65.0868 -65.0867 -65.0860 -65.0856 -65.0853 -65.0853
   -65.0850 -65.0847 -65.0842 -65.0831 -65.0825 -65.0820 -65.0812 -65.0808
   -65.0807 -65.0795 -65.0792 -65.0785 -65.0782 -65.0779 -65.0779 -65.0769
   -65.0767 -65.0760 -65.0756 -65.0753 -65.0752 -65.0746 -65.0741 -65.0739
   -65.0732 -65.0727 -65.0722 -65.0707 -65.0699 -65.0697 -65.0695 -65.0675
   -65.0670 -65.0668 -65.0664 -65.0649 -65.0643 -65.0632 -65.0630 -65.0613
   -65.0567 -65.0549 -64.9938 -64.9921 -64.9908 -64.9779 -64.9666 -64.9630
   -64.9535 -64.9450 -64.9448 -64.9362 -64.9341 -64.9338 -64.9332 -64.9267
   -64.9213 -64.9204 -64.9137 -64.9107 -64.9060 -64.9050 -64.9006 -64.8976
   -64.8972 -64.8968 -64.8965 -64.8953 -64.8834 -64.8811 -64.8811 -64.8786
   -64.8782 -64.8663 -64.8662 -64.8659 -64.8654 -64.8580 -64.8580 -64.8579
   -64.8573 -64.8557 -64.8557 -64.8548 -64.8546 -64.8461 -64.8454 -64.8055
   -64.8047 -64.8029 -64.8025 -64.8007 -64.8006 -64.8002 -64.7993 -64.7992
   -13.1570 -10.3998 -10.3941  -6.7827  -6.7673  -4.7897  -3.1673  -3.1261
    -3.1242  -2.8784  -2.5477  -2.5443  -2.2995  -2.2219  -1.7445  -1.6183
    -1.5917  -1.5905  -1.2584  -1.0867  -1.0544  -0.5706  -0.4943  -0.3753
    -0.3748  -0.3034  -0.2644   0.0216   0.1836   0.2062   0.2242   0.2252
     0.2263   0.2277   0.2307   0.3097   0.3595   0.3892   0.3901   0.4034
     0.4051   0.4226   0.4230   0.4245   0.4247   0.4755   0.4756   0.4777
     0.4778   0.6074   0.6347   0.6356   0.6415   0.6418   0.6549   0.7194
     0.8177   0.8198   0.8227   0.8231   0.8255   0.8368   0.8593   0.8622
     0.8662   0.8715   0.8717   0.9909   0.9920   0.9960   0.9960   1.0115
     1.0193   1.0884   1.0887   1.0985   1.1094   1.1099   1.1548   1.1562
     1.1936   1.1976   1.2197   1.2261   1.2605   1.2606   1.2778   1.3036
     1.3269   1.3288   1.3627   1.3627   1.3723   1.3751   1.3840   1.4008
     1.4016   1.4197   1.4347   1.4801   1.4821   1.5015   1.5057   1.5275
     1.5309   1.5421   1.5490   1.5558   1.5561   1.5639   1.5666   1.6118
     1.6126   1.6143   1.6167   1.6211   1.6341   1.6748   1.6774   1.6868
     1.6874   1.6906   1.6931   1.6962   1.6990   1.7142   1.7391   1.7799
     1.7894   1.7915   1.7951   1.8037   1.8224   1.8393   1.8405   1.8421
     1.8436   1.8454   1.8537   1.8880   1.8956   1.9016   1.9083   1.9113
     1.9193   1.9201   1.9464   1.9514   1.9553   1.9572   1.9803   1.9824
     1.9830   1.9888   1.9901   2.0066   2.0078   2.0126   2.0165   2.0362
     2.0415   2.0666   2.0802   2.0822   2.1315   2.1336   2.1432   2.1451
     2.1462   2.1466   2.1473   2.1482   2.1523   2.1599   2.1682   2.1702
     2.1762   2.1869   2.1888   2.1932   2.1933   2.1981   2.1983   2.2692
     2.2704   2.2754   2.2866   2.3349   2.3357   2.3439   2.3465   2.3515
     2.3573   2.3584   2.3655   2.3706   2.3764   2.3849   2.3998   2.4182
     2.4254   2.4280   2.4317   2.4354   2.4482   2.4585   2.4593   2.4607
     2.4633   2.4763   2.4785   2.4823   2.4857   2.5000   2.5004   2.5864
     2.5868   2.6118   2.6144   2.6369   2.6378   2.6425   2.6442   2.6683
     2.6699   2.6820   2.6977   2.7047   2.7145   2.7161   2.7213   2.7355
     2.7377   2.7520   2.7542   2.7564   2.7589   2.7701   2.7808   2.7850
     2.7912   2.7942   2.8058   2.8430   2.8430   2.8481   2.8489   2.8589
     2.8591   2.8718   2.8787   2.9032   2.9064   2.9210   2.9251   2.9416
     2.9419   2.9609   2.9690   2.9795   2.9858   3.0196   3.0203   3.0405
     3.0478   3.0504   3.0549   3.0728   3.0786   3.0795   3.0806   3.0813
     3.0830   3.0898   3.1123   3.1124   3.1132   3.1133   3.1140   3.1278
     3.1305   3.1346   3.1453   3.1523   3.1634   3.1672   3.1726   3.1746
     3.1752   3.1928   3.1992   3.2179   3.2184   3.2303   3.2312   3.2341
     3.2347   3.2932   3.3572   3.8503   3.9058   3.9186   3.9485   4.3847
     4.4405   4.4417   4.4418   4.4427   4.6978   4.7047   4.7069   4.7083
     5.0173   5.0504   5.1125   5.1840   5.2230   5.2473   5.2702   5.2940
     5.3232   5.5385   5.8701   6.0918   6.1159   6.1374   6.2099   6.2413
     6.2495   6.2931   6.3071   6.6629   6.8108   6.8827   7.0033   7.5341
     7.5513   7.5618   7.7699   7.8174   7.9859   8.3289   8.4142   8.4186
     8.6709   8.6816   8.6918   8.7390   8.9340   8.9927   9.0324   9.2122
     9.3146   9.3312   9.3388   9.3538   9.4508   9.5505   9.6259   9.7559
     9.8250   9.9337   9.9535  10.0080  10.0545  10.2483  10.3133  10.4030
    10.4135  10.5106  10.6033  10.6374  10.6577  10.7870  10.8937  11.0222
    11.0502  11.1086  11.2533  11.2870  11.2903  11.4316  11.4560  11.5052
    11.6982  11.7395  11.8097  12.0213  12.1493  12.1878  12.3189  12.3655
    12.3771  12.3917  12.4321  12.6679  12.6888  12.8165  12.8371  12.9230
    12.9669  13.0434  13.1229  13.1415  13.2221  13.3119  13.3176  13.3308
    13.3820  13.3907  13.3993  13.4362  13.6328  13.6405  13.6500  13.7174
    13.8454  13.8478

          k = 0.2500-0.7217 0.0000 ( 61343 PWs)   bands (ev):

  -107.7049-107.6942-107.6921-107.6915-107.6891-107.6882-107.6875-107.6874
  -107.6869-107.6864-107.6859-107.6856-107.6849-107.6846-107.6843-107.6841
  -107.6839-107.6825-107.6823-107.6821-107.6807-107.6787-107.6785-107.6763
  -107.6751-107.6742-107.6741-107.6723-107.6713-107.6703-107.6690-107.6687
  -107.6681-107.6679-107.6634-107.6629-107.5447-107.5421-107.5421-107.5016
  -107.4990-107.4989-107.4787-107.4762-107.4761-107.4338-107.4324-107.4319
  -107.4297-107.4289-107.4285-107.4282-107.4274-107.4272 -65.1489 -65.1439
   -65.1413 -65.1409 -65.1397 -65.1396 -65.1386 -65.1373 -65.1363 -65.1341
   -65.1338 -65.1329 -65.1300 -65.1291 -65.1281 -65.1271 -65.1269 -65.1255
   -65.1240 -65.1218 -65.1211 -65.1208 -65.1201 -65.1192 -65.1183 -65.1181
   -65.1168 -65.1158 -65.1141 -65.1130 -65.1111 -65.1086 -65.1082 -65.1073
   -65.1057 -65.1050 -65.1044 -65.1034 -65.1030 -65.1012 -65.1006 -65.0999
   -65.0996 -65.0987 -65.0978 -65.0975 -65.0957 -65.0946 -65.0941 -65.0936
   -65.0931 -65.0929 -65.0927 -65.0916 -65.0913 -65.0907 -65.0902 -65.0892
   -65.0888 -65.0882 -65.0874 -65.0873 -65.0867 -65.0859 -65.0851 -65.0847
   -65.0842 -65.0835 -65.0832 -65.0829 -65.0823 -65.0819 -65.0812 -65.0811
   -65.0809 -65.0802 -65.0796 -65.0792 -65.0788 -65.0778 -65.0776 -65.0774
   -65.0769 -65.0767 -65.0760 -65.0754 -65.0752 -65.0748 -65.0747 -65.0742
   -65.0734 -65.0722 -65.0717 -65.0708 -65.0701 -65.0694 -65.0691 -65.0688
   -65.0677 -65.0661 -65.0661 -65.0649 -65.0647 -65.0627 -65.0610 -65.0594
   -65.0588 -65.0552 -64.9933 -64.9923 -64.9913 -64.9774 -64.9671 -64.9629
   -64.9520 -64.9472 -64.9444 -64.9362 -64.9341 -64.9338 -64.9331 -64.9253
   -64.9224 -64.9183 -64.9155 -64.9116 -64.9056 -64.9029 -64.9024 -64.8998
   -64.8994 -64.8960 -64.8932 -64.8895 -64.8891 -64.8834 -64.8811 -64.8811
   -64.8698 -64.8678 -64.8669 -64.8667 -64.8614 -64.8610 -64.8604 -64.8599
   -64.8580 -64.8557 -64.8557 -64.8536 -64.8492 -64.8489 -64.8450 -64.8056
   -64.8043 -64.8037 -64.8018 -64.8009 -64.8006 -64.8003 -64.7993 -64.7991
   -13.1570 -10.3984 -10.3955  -6.7788  -6.7712  -4.7899  -3.3307  -3.1664
    -2.8781  -2.7403  -2.5283  -2.5248  -2.2916  -2.2484  -1.9848  -1.9478
    -1.8444  -1.3706  -1.1016  -1.0105  -0.6584  -0.5135  -0.5108  -0.3359
    -0.2869  -0.1675  -0.1625  -0.1253  -0.0984   0.0787   0.0790   0.0886
     0.2435   0.2508   0.2738   0.2744   0.2888   0.3401   0.3481   0.3496
     0.3690   0.4677   0.4685   0.4698   0.4711   0.5251   0.5417   0.6020
     0.6110   0.6201   0.6315   0.6632   0.6635   0.6643   0.6810   0.6824
     0.7255   0.7322   0.7745   0.7785   0.8050   0.8056   0.8373   0.8393
     0.8447   0.8956   0.8989   0.9282   0.9515   0.9724   0.9735   1.0286
     1.0463   1.0953   1.1119   1.1174   1.1280   1.1361   1.1783   1.1869
     1.2111   1.2277   1.2289   1.2310   1.2735   1.2782   1.3003   1.3038
     1.3065   1.3541   1.3566   1.3732   1.3786   1.3974   1.3981   1.4030
     1.4137   1.4539   1.4594   1.4600   1.4613   1.4730   1.4835   1.4971
     1.4997   1.5143   1.5166   1.5446   1.5507   1.5573   1.5687   1.5823
     1.5870   1.6097   1.6513   1.6554   1.6559   1.6631   1.6705   1.6843
     1.7031   1.7107   1.7271   1.7470   1.7489   1.7562   1.7589   1.7627
     1.7844   1.8002   1.8006   1.8011   1.8034   1.8411   1.8474   1.8515
     1.8552   1.8589   1.8661   1.8804   1.8825   1.9007   1.9022   1.9098
     1.9113   1.9281   1.9408   1.9473   1.9700   1.9789   1.9818   1.9883
     1.9923   1.9981   2.0041   2.0058   2.0163   2.0170   2.0256   2.0303
     2.0334   2.0428   2.0480   2.0560   2.0761   2.0811   2.0887   2.0946
     2.1144   2.1157   2.1170   2.1210   2.1230   2.1286   2.1289   2.1327
     2.1335   2.1393   2.1956   2.1963   2.2497   2.2607   2.2630   2.2652
     2.2697   2.2737   2.2898   2.2930   2.3176   2.3216   2.3310   2.3431
     2.3588   2.3615   2.3969   2.3995   2.4038   2.4280   2.4304   2.4325
     2.4335   2.4344   2.4397   2.4403   2.4435   2.4532   2.4713   2.4743
     2.4957   2.5096   2.5198   2.5207   2.5271   2.5355   2.5455   2.5650
     2.5690   2.5767   2.5866   2.5971   2.6033   2.6196   2.6379   2.6386
     2.6497   2.6543   2.6730   2.6819   2.6878   2.7051   2.7216   2.7275
     2.7400   2.7440   2.7484   2.7640   2.7725   2.7844   2.7936   2.7967
     2.7996   2.8025   2.8053   2.8077   2.8172   2.8249   2.8457   2.8637
     2.8823   2.8864   2.8885   2.9030   2.9350   2.9377   2.9512   2.9612
     2.9811   2.9970   3.0015   3.0049   3.0082   3.0113   3.0176   3.0494
     3.0529   3.0547   3.0570   3.0620   3.0702   3.0724   3.0755   3.0767
     3.0823   3.0836   3.0860   3.0877   3.0923   3.1021   3.1053   3.1148
     3.1170   3.1284   3.1292   3.1394   3.1491   3.1555   3.1636   3.1716
     3.1729   3.1890   3.2033   3.2083   3.2306   3.2505   3.2522   3.4180
     3.4436   3.5184   3.5193   3.6122   3.6164   3.7547   3.9362   3.9495
     4.3341   4.3826   4.4232   4.4268   4.4446   4.6991   4.7875   4.8200
     4.8297   4.8371   5.0317   5.2592   5.2912   5.2996   5.7531   5.7735
     5.8200   5.9743   5.9933   6.0271   6.0469   6.1947   6.1999   6.2486
     6.3495   6.6466   6.6909   6.7635   6.9159   6.9617   7.0543   7.1402
     7.1635   7.2150   7.2580   7.5009   7.6990   7.7371   8.0187   8.0642
     8.4566   8.6041   8.6116   8.7149   8.7494   8.8821   9.1442   9.1874
     9.2718   9.3613   9.3990   9.5288   9.5713   9.6052   9.7532   9.7855
     9.8292  10.0151  10.0901  10.1525  10.2024  10.4043  10.4158  10.5188
    10.5540  10.6544  10.8364  10.8992  10.9776  11.0201  11.1073  11.1881
    11.2131  11.2988  11.4237  11.5794  11.5932  11.6437  11.6605  11.7371
    11.7991  11.8980  11.9310  11.9558  12.0004  12.0866  12.1415  12.2257
    12.3133  12.3879  12.4899  12.5132  12.5699  12.6373  12.6879  12.7314
    12.7461  12.8105  12.8437  12.9021  12.9670  13.1015  13.1494  13.1977
    13.3224  13.3593  13.3952  13.4293  13.5225  13.5836  13.6385  13.6914
    13.7386  13.7610

          k =-0.2500 0.1443 0.0000 ( 61417 PWs)   bands (ev):

  -107.7049-107.6949-107.6914-107.6907-107.6894-107.6884-107.6879-107.6878
  -107.6867-107.6861-107.6860-107.6852-107.6852-107.6847-107.6845-107.6844
  -107.6837-107.6824-107.6822-107.6818-107.6808-107.6788-107.6787-107.6763
  -107.6753-107.6742-107.6741-107.6722-107.6706-107.6704-107.6694-107.6691
  -107.6681-107.6677-107.6634-107.6629-107.5447-107.5421-107.5421-107.5016
  -107.4990-107.4990-107.4786-107.4762-107.4761-107.4346-107.4317-107.4307
  -107.4304-107.4291-107.4289-107.4284-107.4272-107.4271 -65.1504 -65.1433
   -65.1395 -65.1385 -65.1378 -65.1372 -65.1365 -65.1356 -65.1339 -65.1331
   -65.1318 -65.1314 -65.1305 -65.1299 -65.1270 -65.1257 -65.1246 -65.1231
   -65.1220 -65.1218 -65.1203 -65.1201 -65.1200 -65.1191 -65.1179 -65.1177
   -65.1170 -65.1156 -65.1126 -65.1122 -65.1111 -65.1098 -65.1098 -65.1091
   -65.1086 -65.1073 -65.1072 -65.1055 -65.1047 -65.1044 -65.1027 -65.1023
   -65.1010 -65.0992 -65.0992 -65.0983 -65.0980 -65.0979 -65.0967 -65.0963
   -65.0950 -65.0947 -65.0940 -65.0934 -65.0930 -65.0917 -65.0912 -65.0912
   -65.0895 -65.0893 -65.0889 -65.0887 -65.0881 -65.0875 -65.0862 -65.0857
   -65.0843 -65.0840 -65.0833 -65.0830 -65.0822 -65.0819 -65.0814 -65.0811
   -65.0809 -65.0803 -65.0799 -65.0792 -65.0787 -65.0781 -65.0779 -65.0774
   -65.0769 -65.0759 -65.0757 -65.0749 -65.0744 -65.0740 -65.0736 -65.0733
   -65.0726 -65.0712 -65.0706 -65.0700 -65.0697 -65.0673 -65.0673 -65.0671
   -65.0657 -65.0641 -65.0634 -65.0629 -65.0621 -65.0620 -65.0598 -65.0593
   -65.0561 -65.0530 -64.9919 -64.9910 -64.9900 -64.9777 -64.9674 -64.9654
   -64.9516 -64.9483 -64.9471 -64.9363 -64.9339 -64.9339 -64.9316 -64.9267
   -64.9208 -64.9207 -64.9158 -64.9136 -64.9042 -64.9008 -64.8969 -64.8954
   -64.8951 -64.8948 -64.8940 -64.8937 -64.8834 -64.8822 -64.8818 -64.8811
   -64.8811 -64.8765 -64.8761 -64.8734 -64.8581 -64.8580 -64.8578 -64.8568
   -64.8557 -64.8557 -64.8540 -64.8535 -64.8498 -64.8459 -64.8427 -64.8063
   -64.8036 -64.8027 -64.8023 -64.8011 -64.8009 -64.8004 -64.7991 -64.7991
   -13.1578 -10.3961 -10.3935  -6.7799  -6.7716  -4.8185  -3.7500  -3.1953
    -3.1451  -2.8744  -2.2856  -2.2153  -2.2137  -2.1416  -1.6235  -1.4562
    -1.4350  -1.3810  -0.9867  -0.9572  -0.9140  -0.7715  -0.3801  -0.3784
    -0.3338  -0.3079  -0.2615  -0.2606  -0.1961  -0.1674  -0.0951  -0.0945
     0.0384   0.0703   0.0808   0.1758   0.1771   0.1791   0.3373   0.3602
     0.3812   0.4463   0.4478   0.6173   0.6390   0.6734   0.6737   0.6859
     0.7099   0.7100   0.7208   0.7271   0.7599   0.7745   0.7790   0.7806
     0.7897   0.7910   0.8335   0.8338   0.8665   0.8675   0.8933   0.8985
     0.8998   0.9469   0.9537   0.9665   0.9665   0.9833   0.9853   0.9964
     0.9976   1.0167   1.0186   1.0741   1.1298   1.1395   1.1405   1.1509
     1.1604   1.1736   1.1802   1.2016   1.2022   1.2439   1.2466   1.2547
     1.2786   1.3091   1.3261   1.3262   1.3477   1.3644   1.3817   1.3888
     1.4134   1.4190   1.4337   1.4535   1.4661   1.4709   1.5002   1.5294
     1.5313   1.5457   1.5495   1.5614   1.5911   1.6074   1.6143   1.6211
     1.6247   1.6357   1.6713   1.6748   1.7025   1.7322   1.7483   1.7543
     1.7548   1.7678   1.7697   1.7734   1.8034   1.8115   1.8149   1.8271
     1.8278   1.8385   1.8417   1.8463   1.8616   1.8662   1.8687   1.8874
     1.8990   1.9029   1.9041   1.9071   1.9130   1.9212   1.9263   1.9325
     1.9336   1.9400   1.9434   1.9439   1.9664   1.9720   1.9736   1.9837
     1.9843   2.0041   2.0049   2.0051   2.0076   2.0176   2.0190   2.0384
     2.0583   2.0609   2.0717   2.0828   2.0834   2.0860   2.0868   2.0951
     2.1122   2.1131   2.1305   2.1415   2.1449   2.1506   2.1670   2.1678
     2.1830   2.1887   2.1954   2.1986   2.2195   2.2291   2.2295   2.2495
     2.2702   2.2706   2.3010   2.3180   2.3205   2.3228   2.3270   2.3306
     2.3784   2.4017   2.4192   2.4224   2.4273   2.4315   2.4479   2.4494
     2.4791   2.4799   2.4904   2.4924   2.4934   2.4974   2.5086   2.5121
     2.5566   2.5619   2.5670   2.5684   2.5741   2.5976   2.6017   2.6020
     2.6069   2.6083   2.6370   2.6515   2.6532   2.6548   2.6617   2.6693
     2.6800   2.6807   2.6958   2.7004   2.7061   2.7065   2.7169   2.7209
     2.7316   2.7393   2.7882   2.7959   2.7986   2.8212   2.8243   2.8368
     2.8422   2.8430   2.8445   2.8453   2.8549   2.8610   2.8629   2.8737
     2.8750   2.8825   2.8846   2.9104   2.9297   2.9297   2.9314   2.9334
     2.9434   2.9477   2.9585   2.9645   2.9728   2.9738   3.0152   3.0154
     3.0232   3.0237   3.0268   3.0372   3.0393   3.0451   3.0468   3.0498
     3.0534   3.0545   3.0636   3.0638   3.0702   3.0722   3.0795   3.0839
     3.1025   3.1105   3.1117   3.1135   3.1150   3.1178   3.1184   3.1198
     3.1427   3.1511   3.1639   3.1656   3.1664   3.1764   3.1824   3.1905
     3.2188   3.2773   3.3389   3.3951   3.4250   3.4271   3.5281   3.5854
     3.5865   3.8379   3.8775   3.8902   3.9011   3.9548   4.1980   4.4585
     4.6152   4.8510   4.8659   5.0912   5.1838   5.2196   5.2702   5.9547
     5.9575   6.1772   6.2100   6.3273   6.3465   6.3487   6.5261   6.7472
     6.8047   6.9542   7.0083   7.0745   7.1629   7.2916   7.5724   7.8524
     7.8789   7.8980   8.0444   8.1501   8.2985   8.3449   8.3666   8.4587
     8.5436   8.7296   8.8225   8.8272   8.9571   9.0021   9.3081   9.3661
     9.3750   9.4852   9.5697   9.7241   9.8139   9.8675   9.9055  10.0031
    10.0465  10.0930  10.1386  10.2237  10.2832  10.4101  10.5205  10.5276
    10.5760  10.5831  10.6133  10.7282  10.7558  10.8145  10.8386  10.8574
    10.9939  11.0406  11.0510  11.1100  11.1401  11.2913  11.4677  11.4824
    11.5171  11.5627  11.6217  11.7283  11.7814  11.8294  11.8676  12.0218
    12.0805  12.1678  12.2343  12.3149  12.4029  12.4281  12.5134  12.5259
    12.5791  12.6434  12.7248  12.7802  12.8371  12.8414  12.9281  12.9425
    12.9959  13.0845  13.1404  13.1576  13.2209  13.2892  13.3545  13.4049
    13.4508  13.5151

          k = 0.2500 0.1443 0.0000 ( 61417 PWs)   bands (ev):

  -107.7049-107.6949-107.6914-107.6907-107.6894-107.6884-107.6879-107.6878
  -107.6867-107.6861-107.6860-107.6852-107.6852-107.6847-107.6845-107.6844
  -107.6837-107.6824-107.6822-107.6818-107.6808-107.6788-107.6787-107.6763
  -107.6753-107.6742-107.6741-107.6722-107.6706-107.6704-107.6694-107.6691
  -107.6681-107.6677-107.6634-107.6629-107.5447-107.5421-107.5421-107.5016
  -107.4990-107.4990-107.4786-107.4762-107.4761-107.4346-107.4317-107.4307
  -107.4304-107.4291-107.4289-107.4284-107.4272-107.4271 -65.1504 -65.1433
   -65.1395 -65.1385 -65.1378 -65.1372 -65.1365 -65.1356 -65.1339 -65.1331
   -65.1318 -65.1314 -65.1305 -65.1299 -65.1270 -65.1257 -65.1246 -65.1231
   -65.1220 -65.1218 -65.1203 -65.1201 -65.1200 -65.1191 -65.1179 -65.1177
   -65.1170 -65.1156 -65.1126 -65.1122 -65.1111 -65.1098 -65.1098 -65.1091
   -65.1086 -65.1073 -65.1072 -65.1055 -65.1047 -65.1044 -65.1027 -65.1023
   -65.1010 -65.0992 -65.0992 -65.0983 -65.0980 -65.0979 -65.0967 -65.0963
   -65.0950 -65.0947 -65.0940 -65.0934 -65.0930 -65.0917 -65.0912 -65.0912
   -65.0895 -65.0893 -65.0889 -65.0887 -65.0881 -65.0875 -65.0862 -65.0857
   -65.0843 -65.0840 -65.0833 -65.0830 -65.0822 -65.0819 -65.0814 -65.0811
   -65.0809 -65.0803 -65.0799 -65.0792 -65.0787 -65.0781 -65.0779 -65.0774
   -65.0769 -65.0759 -65.0757 -65.0749 -65.0744 -65.0740 -65.0736 -65.0733
   -65.0726 -65.0712 -65.0706 -65.0700 -65.0697 -65.0673 -65.0673 -65.0671
   -65.0657 -65.0641 -65.0634 -65.0629 -65.0621 -65.0620 -65.0598 -65.0593
   -65.0561 -65.0530 -64.9919 -64.9910 -64.9900 -64.9777 -64.9674 -64.9654
   -64.9516 -64.9483 -64.9471 -64.9363 -64.9339 -64.9339 -64.9316 -64.9267
   -64.9208 -64.9207 -64.9158 -64.9136 -64.9042 -64.9008 -64.8969 -64.8954
   -64.8951 -64.8948 -64.8940 -64.8937 -64.8834 -64.8822 -64.8818 -64.8811
   -64.8811 -64.8765 -64.8761 -64.8734 -64.8581 -64.8580 -64.8578 -64.8568
   -64.8557 -64.8557 -64.8540 -64.8535 -64.8498 -64.8459 -64.8427 -64.8063
   -64.8036 -64.8027 -64.8023 -64.8011 -64.8009 -64.8004 -64.7991 -64.7991
   -13.1578 -10.3961 -10.3935  -6.7798  -6.7717  -4.8185  -3.7500  -3.1953
    -3.1451  -2.8744  -2.2857  -2.2153  -2.2136  -2.1416  -1.6235  -1.4562
    -1.4350  -1.3810  -0.9867  -0.9572  -0.9140  -0.7715  -0.3801  -0.3784
    -0.3338  -0.3079  -0.2615  -0.2606  -0.1961  -0.1674  -0.0952  -0.0945
     0.0384   0.0703   0.0808   0.1758   0.1771   0.1791   0.3373   0.3602
     0.3812   0.4463   0.4478   0.6173   0.6390   0.6734   0.6737   0.6859
     0.7099   0.7100   0.7208   0.7271   0.7599   0.7745   0.7790   0.7806
     0.7897   0.7910   0.8335   0.8338   0.8665   0.8675   0.8933   0.8985
     0.8998   0.9469   0.9537   0.9665   0.9665   0.9833   0.9853   0.9964
     0.9976   1.0167   1.0186   1.0741   1.1298   1.1395   1.1405   1.1509
     1.1604   1.1736   1.1802   1.2016   1.2022   1.2439   1.2466   1.2547
     1.2786   1.3091   1.3261   1.3262   1.3477   1.3644   1.3817   1.3888
     1.4134   1.4190   1.4337   1.4535   1.4661   1.4709   1.5002   1.5294
     1.5313   1.5457   1.5495   1.5614   1.5911   1.6074   1.6143   1.6211
     1.6247   1.6357   1.6713   1.6748   1.7025   1.7322   1.7483   1.7543
     1.7548   1.7678   1.7697   1.7734   1.8034   1.8115   1.8149   1.8271
     1.8278   1.8385   1.8417   1.8463   1.8616   1.8662   1.8687   1.8874
     1.8990   1.9029   1.9041   1.9071   1.9130   1.9212   1.9263   1.9325
     1.9336   1.9400   1.9434   1.9439   1.9664   1.9720   1.9736   1.9837
     1.9843   2.0041   2.0049   2.0051   2.0076   2.0176   2.0190   2.0384
     2.0583   2.0609   2.0717   2.0828   2.0834   2.0860   2.0868   2.0951
     2.1122   2.1131   2.1305   2.1415   2.1449   2.1506   2.1670   2.1678
     2.1830   2.1887   2.1954   2.1986   2.2195   2.2291   2.2295   2.2495
     2.2702   2.2706   2.3010   2.3180   2.3205   2.3228   2.3270   2.3306
     2.3784   2.4017   2.4192   2.4224   2.4273   2.4315   2.4479   2.4494
     2.4791   2.4799   2.4904   2.4924   2.4934   2.4974   2.5086   2.5121
     2.5566   2.5619   2.5670   2.5684   2.5741   2.5976   2.6017   2.6020
     2.6069   2.6083   2.6370   2.6515   2.6532   2.6548   2.6617   2.6693
     2.6800   2.6807   2.6958   2.7004   2.7061   2.7065   2.7169   2.7209
     2.7316   2.7393   2.7882   2.7959   2.7986   2.8212   2.8243   2.8368
     2.8422   2.8430   2.8445   2.8453   2.8549   2.8610   2.8629   2.8737
     2.8750   2.8825   2.8846   2.9104   2.9297   2.9297   2.9314   2.9334
     2.9434   2.9477   2.9585   2.9645   2.9728   2.9738   3.0152   3.0154
     3.0232   3.0237   3.0268   3.0372   3.0393   3.0451   3.0468   3.0498
     3.0533   3.0545   3.0636   3.0638   3.0702   3.0722   3.0795   3.0839
     3.1025   3.1105   3.1117   3.1135   3.1150   3.1178   3.1184   3.1198
     3.1427   3.1511   3.1639   3.1656   3.1664   3.1764   3.1824   3.1905
     3.2188   3.2773   3.3389   3.3951   3.4250   3.4271   3.5281   3.5854
     3.5865   3.8379   3.8775   3.8902   3.9011   3.9548   4.1980   4.4585
     4.6152   4.8510   4.8659   5.0912   5.1838   5.2196   5.2702   5.9547
     5.9575   6.1772   6.2100   6.3273   6.3465   6.3487   6.5261   6.7472
     6.8047   6.9542   7.0083   7.0745   7.1629   7.2916   7.5724   7.8524
     7.8789   7.8980   8.0444   8.1501   8.2985   8.3449   8.3666   8.4587
     8.5436   8.7296   8.8225   8.8272   8.9571   9.0021   9.3081   9.3661
     9.3750   9.4852   9.5697   9.7241   9.8139   9.8675   9.9055  10.0031
    10.0465  10.0930  10.1386  10.2237  10.2832  10.4101  10.5205  10.5276
    10.5759  10.5831  10.6133  10.7282  10.7558  10.8145  10.8386  10.8574
    10.9939  11.0406  11.0510  11.1100  11.1401  11.2913  11.4677  11.4824
    11.5171  11.5627  11.6217  11.7283  11.7814  11.8294  11.8676  12.0218
    12.0805  12.1678  12.2343  12.3149  12.4029  12.4281  12.5134  12.5259
    12.5791  12.6434  12.7248  12.7802  12.8371  12.8414  12.9281  12.9425
    12.9959  13.0845  13.1404  13.1576  13.2209  13.2892  13.3546  13.4049
    13.4508  13.5151

          k = 0.5000-0.2887 0.0000 ( 61408 PWs)   bands (ev):

  -107.7049-107.6942-107.6925-107.6909-107.6896-107.6881-107.6875-107.6874
  -107.6872-107.6859-107.6858-107.6856-107.6853-107.6846-107.6843-107.6841
  -107.6838-107.6827-107.6823-107.6818-107.6808-107.6787-107.6785-107.6763
  -107.6751-107.6742-107.6741-107.6724-107.6709-107.6706-107.6692-107.6683
  -107.6683-107.6679-107.6634-107.6629-107.5447-107.5421-107.5421-107.5016
  -107.4990-107.4990-107.4787-107.4762-107.4761-107.4337-107.4330-107.4309
  -107.4306-107.4286-107.4285-107.4281-107.4274-107.4273 -65.1488 -65.1446
   -65.1424 -65.1413 -65.1395 -65.1376 -65.1367 -65.1360 -65.1350 -65.1345
   -65.1341 -65.1336 -65.1331 -65.1321 -65.1296 -65.1268 -65.1235 -65.1232
   -65.1230 -65.1221 -65.1215 -65.1211 -65.1210 -65.1206 -65.1190 -65.1177
   -65.1174 -65.1161 -65.1124 -65.1106 -65.1099 -65.1098 -65.1092 -65.1081
   -65.1074 -65.1047 -65.1035 -65.1027 -65.1009 -65.1004 -65.1004 -65.1001
   -65.0994 -65.0984 -65.0979 -65.0977 -65.0971 -65.0956 -65.0953 -65.0940
   -65.0933 -65.0928 -65.0927 -65.0924 -65.0916 -65.0914 -65.0901 -65.0897
   -65.0881 -65.0875 -65.0868 -65.0867 -65.0860 -65.0856 -65.0853 -65.0853
   -65.0850 -65.0847 -65.0842 -65.0831 -65.0825 -65.0820 -65.0812 -65.0808
   -65.0807 -65.0795 -65.0792 -65.0785 -65.0782 -65.0779 -65.0779 -65.0769
   -65.0767 -65.0760 -65.0756 -65.0753 -65.0752 -65.0746 -65.0741 -65.0739
   -65.0732 -65.0727 -65.0722 -65.0707 -65.0698 -65.0697 -65.0695 -65.0675
   -65.0669 -65.0668 -65.0664 -65.0649 -65.0643 -65.0632 -65.0630 -65.0613
   -65.0567 -65.0549 -64.9938 -64.9921 -64.9908 -64.9779 -64.9666 -64.9630
   -64.9535 -64.9450 -64.9448 -64.9362 -64.9341 -64.9338 -64.9332 -64.9267
   -64.9213 -64.9204 -64.9137 -64.9107 -64.9060 -64.9050 -64.9006 -64.8976
   -64.8972 -64.8968 -64.8965 -64.8953 -64.8834 -64.8811 -64.8811 -64.8786
   -64.8782 -64.8663 -64.8662 -64.8659 -64.8654 -64.8580 -64.8580 -64.8579
   -64.8573 -64.8557 -64.8556 -64.8548 -64.8546 -64.8461 -64.8454 -64.8055
   -64.8047 -64.8029 -64.8025 -64.8007 -64.8006 -64.8002 -64.7993 -64.7992
   -13.1570 -10.3996 -10.3943  -6.7832  -6.7669  -4.7897  -3.1673  -3.1261
    -3.1242  -2.8783  -2.5477  -2.5443  -2.2994  -2.2220  -1.7445  -1.6183
    -1.5917  -1.5905  -1.2584  -1.0867  -1.0544  -0.5706  -0.4943  -0.3753
    -0.3747  -0.3032  -0.2646   0.0216   0.1836   0.2062   0.2242   0.2252
     0.2263   0.2277   0.2307   0.3097   0.3595   0.3892   0.3901   0.4034
     0.4051   0.4226   0.4230   0.4245   0.4247   0.4755   0.4756   0.4777
     0.4778   0.6074   0.6347   0.6356   0.6415   0.6418   0.6549   0.7194
     0.8177   0.8198   0.8227   0.8231   0.8255   0.8368   0.8593   0.8622
     0.8662   0.8715   0.8717   0.9909   0.9920   0.9960   0.9960   1.0115
     1.0193   1.0884   1.0887   1.0985   1.1094   1.1099   1.1547   1.1562
     1.1936   1.1976   1.2197   1.2262   1.2605   1.2606   1.2778   1.3036
     1.3269   1.3288   1.3627   1.3627   1.3723   1.3751   1.3840   1.4008
     1.4016   1.4198   1.4347   1.4801   1.4821   1.5015   1.5058   1.5275
     1.5309   1.5421   1.5490   1.5558   1.5561   1.5639   1.5666   1.6118
     1.6126   1.6143   1.6167   1.6211   1.6341   1.6748   1.6774   1.6868
     1.6874   1.6906   1.6931   1.6962   1.6990   1.7142   1.7391   1.7799
     1.7894   1.7915   1.7951   1.8037   1.8224   1.8393   1.8405   1.8421
     1.8436   1.8454   1.8537   1.8880   1.8956   1.9016   1.9083   1.9113
     1.9193   1.9201   1.9464   1.9514   1.9553   1.9571   1.9803   1.9824
     1.9830   1.9888   1.9901   2.0066   2.0078   2.0126   2.0165   2.0362
     2.0415   2.0666   2.0802   2.0822   2.1315   2.1336   2.1432   2.1451
     2.1462   2.1466   2.1473   2.1482   2.1523   2.1599   2.1682   2.1702
     2.1762   2.1869   2.1888   2.1932   2.1933   2.1981   2.1982   2.2692
     2.2704   2.2754   2.2866   2.3349   2.3357   2.3439   2.3465   2.3515
     2.3573   2.3584   2.3655   2.3706   2.3764   2.3849   2.3998   2.4181
     2.4254   2.4280   2.4317   2.4354   2.4481   2.4585   2.4593   2.4607
     2.4633   2.4763   2.4785   2.4823   2.4857   2.5000   2.5004   2.5864
     2.5868   2.6118   2.6144   2.6369   2.6378   2.6425   2.6442   2.6683
     2.6699   2.6820   2.6977   2.7047   2.7145   2.7161   2.7213   2.7355
     2.7377   2.7520   2.7542   2.7564   2.7589   2.7701   2.7808   2.7850
     2.7912   2.7942   2.8058   2.8430   2.8430   2.8481   2.8489   2.8589
     2.8591   2.8718   2.8787   2.9032   2.9064   2.9210   2.9251   2.9416
     2.9419   2.9609   2.9690   2.9795   2.9858   3.0196   3.0203   3.0405
     3.0478   3.0504   3.0549   3.0728   3.0786   3.0795   3.0806   3.0813
     3.0830   3.0898   3.1123   3.1124   3.1132   3.1133   3.1140   3.1278
     3.1305   3.1346   3.1453   3.1523   3.1634   3.1672   3.1726   3.1746
     3.1752   3.1928   3.1992   3.2179   3.2184   3.2303   3.2312   3.2341
     3.2347   3.2932   3.3572   3.8503   3.9058   3.9186   3.9485   4.3847
     4.4405   4.4417   4.4418   4.4427   4.6978   4.7047   4.7069   4.7083
     5.0173   5.0504   5.1125   5.1840   5.2230   5.2473   5.2702   5.2940
     5.3232   5.5385   5.8701   6.0918   6.1158   6.1374   6.2098   6.2413
     6.2495   6.2931   6.3071   6.6628   6.8108   6.8828   7.0032   7.5341
     7.5513   7.5618   7.7699   7.8175   7.9857   8.3289   8.4141   8.4186
     8.6709   8.6816   8.6918   8.7390   8.9341   8.9927   9.0324   9.2121
     9.3146   9.3312   9.3388   9.3538   9.4508   9.5506   9.6259   9.7559
     9.8250   9.9337   9.9535  10.0080  10.0546  10.2482  10.3133  10.4030
    10.4135  10.5106  10.6033  10.6374  10.6577  10.7870  10.8937  11.0222
    11.0503  11.1086  11.2533  11.2870  11.2903  11.4316  11.4560  11.5053
    11.6982  11.7396  11.8096  12.0213  12.1494  12.1878  12.3191  12.3656
    12.3771  12.3917  12.4322  12.6679  12.6889  12.8164  12.8370  12.9229
    12.9667  13.0434  13.1229  13.1415  13.2221  13.3119  13.3176  13.3308
    13.3820  13.3907  13.3993  13.4362  13.6329  13.6405  13.6500  13.7174
    13.8458  13.8479

          k =-0.5000-0.2887 0.0000 ( 61408 PWs)   bands (ev):

  -107.7049-107.6942-107.6925-107.6909-107.6896-107.6881-107.6875-107.6874
  -107.6872-107.6859-107.6858-107.6856-107.6853-107.6846-107.6843-107.6841
  -107.6838-107.6827-107.6823-107.6818-107.6808-107.6787-107.6785-107.6763
  -107.6751-107.6742-107.6741-107.6724-107.6709-107.6706-107.6692-107.6683
  -107.6683-107.6679-107.6634-107.6629-107.5447-107.5421-107.5421-107.5016
  -107.4990-107.4990-107.4787-107.4762-107.4761-107.4337-107.4330-107.4309
  -107.4306-107.4286-107.4285-107.4281-107.4274-107.4273 -65.1488 -65.1446
   -65.1424 -65.1413 -65.1396 -65.1376 -65.1367 -65.1360 -65.1350 -65.1345
   -65.1341 -65.1336 -65.1331 -65.1321 -65.1296 -65.1268 -65.1235 -65.1232
   -65.1230 -65.1221 -65.1215 -65.1211 -65.1210 -65.1206 -65.1190 -65.1177
   -65.1174 -65.1161 -65.1124 -65.1106 -65.1099 -65.1098 -65.1092 -65.1081
   -65.1074 -65.1047 -65.1035 -65.1027 -65.1009 -65.1004 -65.1004 -65.1001
   -65.0994 -65.0984 -65.0979 -65.0977 -65.0971 -65.0956 -65.0953 -65.0940
   -65.0933 -65.0928 -65.0927 -65.0924 -65.0916 -65.0914 -65.0901 -65.0897
   -65.0881 -65.0875 -65.0868 -65.0867 -65.0860 -65.0856 -65.0853 -65.0853
   -65.0850 -65.0847 -65.0842 -65.0831 -65.0825 -65.0820 -65.0812 -65.0808
   -65.0807 -65.0795 -65.0792 -65.0785 -65.0782 -65.0779 -65.0779 -65.0769
   -65.0767 -65.0760 -65.0756 -65.0753 -65.0752 -65.0746 -65.0741 -65.0739
   -65.0732 -65.0727 -65.0722 -65.0707 -65.0698 -65.0697 -65.0695 -65.0675
   -65.0669 -65.0668 -65.0664 -65.0649 -65.0643 -65.0632 -65.0630 -65.0613
   -65.0567 -65.0549 -64.9938 -64.9921 -64.9908 -64.9779 -64.9666 -64.9630
   -64.9535 -64.9450 -64.9448 -64.9362 -64.9341 -64.9338 -64.9332 -64.9267
   -64.9213 -64.9204 -64.9137 -64.9107 -64.9060 -64.9050 -64.9006 -64.8976
   -64.8972 -64.8968 -64.8965 -64.8953 -64.8834 -64.8811 -64.8811 -64.8786
   -64.8782 -64.8663 -64.8662 -64.8659 -64.8654 -64.8580 -64.8580 -64.8579
   -64.8573 -64.8557 -64.8556 -64.8548 -64.8546 -64.8461 -64.8454 -64.8055
   -64.8047 -64.8029 -64.8025 -64.8007 -64.8006 -64.8002 -64.7993 -64.7992
   -13.1570 -10.3996 -10.3942  -6.7831  -6.7669  -4.7897  -3.1673  -3.1261
    -3.1242  -2.8783  -2.5477  -2.5443  -2.2995  -2.2219  -1.7445  -1.6183
    -1.5917  -1.5905  -1.2584  -1.0867  -1.0544  -0.5706  -0.4943  -0.3753
    -0.3748  -0.3033  -0.2645   0.0216   0.1836   0.2062   0.2242   0.2252
     0.2263   0.2277   0.2307   0.3097   0.3595   0.3892   0.3901   0.4034
     0.4051   0.4226   0.4230   0.4245   0.4247   0.4755   0.4756   0.4777
     0.4778   0.6074   0.6347   0.6356   0.6415   0.6418   0.6549   0.7194
     0.8177   0.8198   0.8227   0.8231   0.8255   0.8368   0.8593   0.8622
     0.8662   0.8715   0.8717   0.9909   0.9920   0.9960   0.9960   1.0115
     1.0193   1.0884   1.0887   1.0985   1.1094   1.1099   1.1547   1.1562
     1.1936   1.1976   1.2197   1.2261   1.2605   1.2606   1.2778   1.3036
     1.3269   1.3288   1.3627   1.3627   1.3723   1.3751   1.3840   1.4008
     1.4016   1.4198   1.4347   1.4801   1.4821   1.5015   1.5058   1.5275
     1.5309   1.5421   1.5490   1.5558   1.5561   1.5639   1.5666   1.6118
     1.6126   1.6143   1.6167   1.6211   1.6341   1.6748   1.6774   1.6868
     1.6874   1.6906   1.6931   1.6962   1.6990   1.7142   1.7391   1.7799
     1.7894   1.7915   1.7951   1.8037   1.8224   1.8393   1.8405   1.8421
     1.8436   1.8454   1.8537   1.8880   1.8956   1.9016   1.9083   1.9113
     1.9193   1.9201   1.9464   1.9514   1.9553   1.9571   1.9803   1.9824
     1.9830   1.9888   1.9901   2.0066   2.0078   2.0126   2.0165   2.0362
     2.0415   2.0666   2.0802   2.0822   2.1315   2.1336   2.1432   2.1451
     2.1462   2.1466   2.1473   2.1482   2.1523   2.1599   2.1682   2.1702
     2.1762   2.1869   2.1888   2.1932   2.1933   2.1981   2.1982   2.2692
     2.2704   2.2754   2.2866   2.3349   2.3357   2.3439   2.3465   2.3515
     2.3573   2.3584   2.3655   2.3706   2.3764   2.3849   2.3998   2.4181
     2.4254   2.4280   2.4317   2.4354   2.4481   2.4585   2.4593   2.4607
     2.4633   2.4763   2.4785   2.4823   2.4857   2.5000   2.5004   2.5864
     2.5868   2.6118   2.6144   2.6369   2.6378   2.6425   2.6442   2.6683
     2.6699   2.6820   2.6977   2.7047   2.7145   2.7161   2.7213   2.7355
     2.7377   2.7520   2.7542   2.7564   2.7589   2.7701   2.7808   2.7850
     2.7912   2.7942   2.8058   2.8430   2.8430   2.8481   2.8489   2.8589
     2.8591   2.8718   2.8787   2.9032   2.9064   2.9210   2.9251   2.9416
     2.9419   2.9609   2.9690   2.9795   2.9858   3.0196   3.0203   3.0405
     3.0478   3.0504   3.0549   3.0728   3.0786   3.0795   3.0806   3.0813
     3.0830   3.0898   3.1123   3.1124   3.1132   3.1133   3.1141   3.1278
     3.1305   3.1346   3.1453   3.1523   3.1634   3.1672   3.1726   3.1746
     3.1752   3.1928   3.1992   3.2179   3.2184   3.2303   3.2312   3.2341
     3.2347   3.2932   3.3572   3.8503   3.9058   3.9186   3.9485   4.3847
     4.4405   4.4417   4.4418   4.4427   4.6978   4.7047   4.7069   4.7083
     5.0173   5.0504   5.1125   5.1840   5.2230   5.2473   5.2702   5.2940
     5.3232   5.5385   5.8701   6.0918   6.1158   6.1374   6.2098   6.2413
     6.2495   6.2931   6.3071   6.6628   6.8108   6.8828   7.0032   7.5341
     7.5513   7.5618   7.7699   7.8175   7.9857   8.3289   8.4141   8.4186
     8.6709   8.6816   8.6918   8.7390   8.9341   8.9927   9.0324   9.2121
     9.3146   9.3312   9.3388   9.3538   9.4508   9.5506   9.6259   9.7559
     9.8250   9.9338   9.9535  10.0080  10.0546  10.2482  10.3133  10.4030
    10.4135  10.5106  10.6033  10.6374  10.6577  10.7870  10.8937  11.0222
    11.0503  11.1086  11.2533  11.2869  11.2903  11.4316  11.4560  11.5053
    11.6982  11.7396  11.8096  12.0213  12.1493  12.1878  12.3189  12.3657
    12.3771  12.3917  12.4322  12.6679  12.6889  12.8164  12.8370  12.9230
    12.9667  13.0434  13.1229  13.1415  13.2221  13.3119  13.3176  13.3308
    13.3820  13.3907  13.3993  13.4362  13.6329  13.6405  13.6500  13.7174
    13.8453  13.8479

          k =-0.2500-0.7217 0.0000 ( 61343 PWs)   bands (ev):

  -107.7049-107.6942-107.6921-107.6915-107.6891-107.6882-107.6875-107.6874
  -107.6869-107.6864-107.6859-107.6856-107.6849-107.6846-107.6843-107.6841
  -107.6839-107.6825-107.6823-107.6821-107.6807-107.6787-107.6785-107.6763
  -107.6751-107.6742-107.6741-107.6723-107.6713-107.6703-107.6690-107.6687
  -107.6681-107.6679-107.6634-107.6629-107.5447-107.5421-107.5421-107.5016
  -107.4990-107.4989-107.4787-107.4762-107.4761-107.4338-107.4324-107.4319
  -107.4297-107.4289-107.4285-107.4282-107.4274-107.4272 -65.1489 -65.1439
   -65.1413 -65.1409 -65.1397 -65.1396 -65.1386 -65.1373 -65.1363 -65.1341
   -65.1338 -65.1329 -65.1300 -65.1291 -65.1281 -65.1271 -65.1269 -65.1255
   -65.1240 -65.1218 -65.1211 -65.1208 -65.1201 -65.1192 -65.1183 -65.1181
   -65.1168 -65.1158 -65.1141 -65.1130 -65.1111 -65.1086 -65.1082 -65.1073
   -65.1057 -65.1050 -65.1044 -65.1034 -65.1030 -65.1012 -65.1006 -65.0999
   -65.0996 -65.0987 -65.0978 -65.0975 -65.0957 -65.0946 -65.0941 -65.0936
   -65.0931 -65.0929 -65.0927 -65.0916 -65.0913 -65.0907 -65.0902 -65.0892
   -65.0888 -65.0882 -65.0874 -65.0873 -65.0867 -65.0859 -65.0851 -65.0847
   -65.0842 -65.0835 -65.0832 -65.0829 -65.0823 -65.0819 -65.0812 -65.0811
   -65.0809 -65.0802 -65.0796 -65.0792 -65.0788 -65.0778 -65.0776 -65.0774
   -65.0769 -65.0767 -65.0760 -65.0754 -65.0752 -65.0748 -65.0747 -65.0742
   -65.0734 -65.0722 -65.0717 -65.0708 -65.0701 -65.0694 -65.0691 -65.0688
   -65.0677 -65.0661 -65.0661 -65.0649 -65.0647 -65.0627 -65.0610 -65.0594
   -65.0588 -65.0552 -64.9933 -64.9923 -64.9913 -64.9774 -64.9671 -64.9629
   -64.9520 -64.9472 -64.9444 -64.9362 -64.9341 -64.9338 -64.9331 -64.9253
   -64.9224 -64.9183 -64.9155 -64.9116 -64.9056 -64.9029 -64.9024 -64.8998
   -64.8994 -64.8960 -64.8932 -64.8895 -64.8891 -64.8834 -64.8811 -64.8811
   -64.8698 -64.8678 -64.8669 -64.8667 -64.8614 -64.8610 -64.8604 -64.8599
   -64.8580 -64.8557 -64.8556 -64.8536 -64.8492 -64.8489 -64.8450 -64.8056
   -64.8043 -64.8037 -64.8018 -64.8009 -64.8006 -64.8003 -64.7993 -64.7991
   -13.1570 -10.3984 -10.3955  -6.7789  -6.7711  -4.7899  -3.3307  -3.1664
    -2.8781  -2.7403  -2.5283  -2.5248  -2.2915  -2.2485  -1.9848  -1.9478
    -1.8444  -1.3706  -1.1016  -1.0105  -0.6584  -0.5135  -0.5108  -0.3358
    -0.2871  -0.1675  -0.1625  -0.1253  -0.0984   0.0787   0.0790   0.0886
     0.2435   0.2508   0.2738   0.2744   0.2888   0.3401   0.3481   0.3496
     0.3690   0.4677   0.4685   0.4698   0.4711   0.5251   0.5417   0.6020
     0.6110   0.6201   0.6315   0.6632   0.6635   0.6643   0.6810   0.6824
     0.7255   0.7322   0.7745   0.7785   0.8050   0.8056   0.8373   0.8393
     0.8447   0.8956   0.8989   0.9282   0.9515   0.9724   0.9735   1.0286
     1.0463   1.0953   1.1119   1.1174   1.1280   1.1361   1.1782   1.1869
     1.2111   1.2277   1.2289   1.2310   1.2735   1.2782   1.3003   1.3038
     1.3065   1.3541   1.3566   1.3732   1.3786   1.3974   1.3981   1.4030
     1.4137   1.4539   1.4594   1.4600   1.4613   1.4730   1.4835   1.4971
     1.4997   1.5143   1.5166   1.5446   1.5507   1.5573   1.5687   1.5823
     1.5870   1.6097   1.6513   1.6554   1.6559   1.6631   1.6705   1.6843
     1.7031   1.7107   1.7271   1.7470   1.7489   1.7562   1.7589   1.7627
     1.7844   1.8002   1.8006   1.8011   1.8034   1.8411   1.8474   1.8515
     1.8552   1.8589   1.8661   1.8804   1.8825   1.9007   1.9022   1.9098
     1.9113   1.9281   1.9408   1.9473   1.9700   1.9789   1.9818   1.9883
     1.9923   1.9981   2.0041   2.0058   2.0163   2.0170   2.0256   2.0303
     2.0334   2.0428   2.0480   2.0560   2.0761   2.0811   2.0887   2.0946
     2.1144   2.1157   2.1170   2.1210   2.1230   2.1286   2.1289   2.1327
     2.1335   2.1393   2.1956   2.1963   2.2497   2.2607   2.2630   2.2652
     2.2697   2.2737   2.2898   2.2930   2.3176   2.3216   2.3310   2.3431
     2.3588   2.3615   2.3969   2.3995   2.4038   2.4280   2.4304   2.4325
     2.4335   2.4344   2.4397   2.4403   2.4435   2.4532   2.4713   2.4743
     2.4957   2.5096   2.5198   2.5207   2.5271   2.5355   2.5455   2.5650
     2.5690   2.5767   2.5866   2.5971   2.6033   2.6196   2.6379   2.6386
     2.6497   2.6543   2.6730   2.6819   2.6878   2.7051   2.7216   2.7275
     2.7400   2.7440   2.7484   2.7640   2.7725   2.7844   2.7936   2.7967
     2.7996   2.8025   2.8053   2.8077   2.8172   2.8249   2.8457   2.8637
     2.8823   2.8864   2.8885   2.9030   2.9350   2.9377   2.9512   2.9612
     2.9811   2.9970   3.0015   3.0049   3.0082   3.0113   3.0176   3.0494
     3.0529   3.0547   3.0570   3.0620   3.0702   3.0724   3.0755   3.0767
     3.0823   3.0836   3.0860   3.0877   3.0923   3.1021   3.1053   3.1148
     3.1170   3.1284   3.1292   3.1394   3.1491   3.1555   3.1636   3.1716
     3.1729   3.1890   3.2033   3.2083   3.2306   3.2505   3.2522   3.4180
     3.4436   3.5184   3.5193   3.6122   3.6164   3.7547   3.9362   3.9495
     4.3341   4.3826   4.4232   4.4268   4.4446   4.6991   4.7875   4.8200
     4.8297   4.8371   5.0317   5.2592   5.2912   5.2996   5.7531   5.7735
     5.8200   5.9743   5.9933   6.0271   6.0469   6.1947   6.1999   6.2486
     6.3495   6.6466   6.6908   6.7635   6.9159   6.9617   7.0543   7.1402
     7.1635   7.2150   7.2580   7.5009   7.6990   7.7371   8.0187   8.0642
     8.4566   8.6041   8.6116   8.7149   8.7495   8.8821   9.1442   9.1874
     9.2718   9.3613   9.3990   9.5288   9.5713   9.6052   9.7532   9.7855
     9.8292  10.0151  10.0901  10.1525  10.2024  10.4043  10.4158  10.5188
    10.5540  10.6544  10.8364  10.8992  10.9776  11.0201  11.1073  11.1881
    11.2131  11.2988  11.4237  11.5793  11.5932  11.6437  11.6605  11.7371
    11.7991  11.8980  11.9310  11.9558  12.0004  12.0866  12.1415  12.2257
    12.3134  12.3879  12.4899  12.5132  12.5699  12.6373  12.6879  12.7314
    12.7461  12.8105  12.8437  12.9021  12.9670  13.1015  13.1494  13.1977
    13.3223  13.3593  13.3952  13.4293  13.5224  13.5835  13.6384  13.6914
    13.7385  13.7607

          k =-0.5000-0.5774 0.0000 ( 61343 PWs)   bands (ev):

  -107.7049-107.6942-107.6921-107.6915-107.6891-107.6882-107.6875-107.6874
  -107.6869-107.6864-107.6859-107.6856-107.6849-107.6846-107.6843-107.6841
  -107.6839-107.6825-107.6823-107.6821-107.6807-107.6787-107.6785-107.6763
  -107.6751-107.6742-107.6741-107.6723-107.6713-107.6703-107.6690-107.6687
  -107.6681-107.6679-107.6634-107.6629-107.5447-107.5421-107.5421-107.5016
  -107.4990-107.4990-107.4787-107.4762-107.4761-107.4338-107.4324-107.4319
  -107.4297-107.4289-107.4285-107.4282-107.4274-107.4272 -65.1489 -65.1439
   -65.1413 -65.1409 -65.1397 -65.1396 -65.1386 -65.1373 -65.1363 -65.1341
   -65.1338 -65.1329 -65.1300 -65.1291 -65.1281 -65.1271 -65.1269 -65.1255
   -65.1240 -65.1218 -65.1211 -65.1208 -65.1201 -65.1192 -65.1183 -65.1181
   -65.1168 -65.1158 -65.1141 -65.1130 -65.1111 -65.1086 -65.1082 -65.1073
   -65.1057 -65.1050 -65.1044 -65.1034 -65.1030 -65.1012 -65.1006 -65.0999
   -65.0996 -65.0987 -65.0978 -65.0975 -65.0957 -65.0946 -65.0941 -65.0936
   -65.0931 -65.0929 -65.0927 -65.0916 -65.0913 -65.0907 -65.0902 -65.0892
   -65.0888 -65.0882 -65.0874 -65.0873 -65.0867 -65.0859 -65.0851 -65.0847
   -65.0842 -65.0835 -65.0832 -65.0829 -65.0823 -65.0819 -65.0812 -65.0811
   -65.0809 -65.0802 -65.0796 -65.0792 -65.0788 -65.0778 -65.0776 -65.0774
   -65.0769 -65.0767 -65.0760 -65.0754 -65.0752 -65.0748 -65.0747 -65.0742
   -65.0734 -65.0722 -65.0717 -65.0708 -65.0701 -65.0694 -65.0691 -65.0688
   -65.0677 -65.0661 -65.0661 -65.0649 -65.0647 -65.0627 -65.0610 -65.0594
   -65.0588 -65.0552 -64.9933 -64.9923 -64.9913 -64.9774 -64.9671 -64.9629
   -64.9520 -64.9472 -64.9444 -64.9362 -64.9341 -64.9338 -64.9331 -64.9253
   -64.9224 -64.9183 -64.9155 -64.9116 -64.9056 -64.9029 -64.9024 -64.8998
   -64.8994 -64.8960 -64.8932 -64.8895 -64.8891 -64.8834 -64.8811 -64.8811
   -64.8698 -64.8678 -64.8669 -64.8667 -64.8614 -64.8610 -64.8604 -64.8599
   -64.8580 -64.8557 -64.8556 -64.8536 -64.8492 -64.8489 -64.8450 -64.8056
   -64.8043 -64.8037 -64.8018 -64.8009 -64.8006 -64.8003 -64.7993 -64.7991
   -13.1570 -10.3982 -10.3957  -6.7792  -6.7708  -4.7899  -3.3307  -3.1664
    -2.8781  -2.7403  -2.5282  -2.5248  -2.2915  -2.2485  -1.9848  -1.9478
    -1.8444  -1.3706  -1.1016  -1.0105  -0.6584  -0.5135  -0.5109  -0.3357
    -0.2872  -0.1675  -0.1625  -0.1253  -0.0984   0.0787   0.0790   0.0886
     0.2435   0.2508   0.2738   0.2745   0.2888   0.3401   0.3481   0.3496
     0.3690   0.4677   0.4685   0.4698   0.4711   0.5251   0.5417   0.6020
     0.6110   0.6201   0.6315   0.6632   0.6635   0.6643   0.6810   0.6824
     0.7255   0.7322   0.7745   0.7785   0.8050   0.8056   0.8373   0.8393
     0.8447   0.8957   0.8989   0.9282   0.9515   0.9724   0.9735   1.0286
     1.0463   1.0953   1.1119   1.1174   1.1280   1.1361   1.1782   1.1869
     1.2111   1.2277   1.2289   1.2310   1.2735   1.2782   1.3003   1.3038
     1.3065   1.3541   1.3566   1.3732   1.3786   1.3974   1.3981   1.4030
     1.4137   1.4539   1.4594   1.4600   1.4613   1.4730   1.4835   1.4971
     1.4997   1.5143   1.5166   1.5446   1.5507   1.5573   1.5687   1.5823
     1.5870   1.6097   1.6513   1.6554   1.6559   1.6631   1.6705   1.6843
     1.7031   1.7107   1.7271   1.7470   1.7489   1.7562   1.7589   1.7627
     1.7844   1.8002   1.8006   1.8011   1.8034   1.8411   1.8474   1.8515
     1.8552   1.8589   1.8661   1.8804   1.8825   1.9007   1.9022   1.9098
     1.9113   1.9281   1.9408   1.9473   1.9700   1.9789   1.9818   1.9883
     1.9923   1.9981   2.0041   2.0058   2.0163   2.0170   2.0256   2.0303
     2.0334   2.0428   2.0480   2.0560   2.0761   2.0811   2.0887   2.0946
     2.1144   2.1157   2.1170   2.1210   2.1230   2.1286   2.1289   2.1327
     2.1335   2.1393   2.1956   2.1964   2.2497   2.2608   2.2630   2.2652
     2.2697   2.2737   2.2898   2.2930   2.3176   2.3216   2.3310   2.3431
     2.3588   2.3615   2.3969   2.3995   2.4038   2.4280   2.4304   2.4325
     2.4335   2.4344   2.4397   2.4403   2.4435   2.4532   2.4713   2.4743
     2.4957   2.5096   2.5198   2.5207   2.5271   2.5355   2.5455   2.5650
     2.5690   2.5767   2.5866   2.5971   2.6033   2.6196   2.6379   2.6386
     2.6497   2.6543   2.6730   2.6819   2.6878   2.7051   2.7216   2.7275
     2.7400   2.7440   2.7484   2.7640   2.7725   2.7844   2.7936   2.7967
     2.7996   2.8025   2.8053   2.8077   2.8172   2.8249   2.8457   2.8637
     2.8823   2.8864   2.8885   2.9030   2.9350   2.9377   2.9512   2.9612
     2.9811   2.9970   3.0015   3.0049   3.0082   3.0113   3.0176   3.0494
     3.0529   3.0547   3.0570   3.0620   3.0702   3.0724   3.0755   3.0767
     3.0823   3.0836   3.0860   3.0877   3.0923   3.1021   3.1053   3.1148
     3.1170   3.1284   3.1292   3.1394   3.1491   3.1555   3.1636   3.1716
     3.1729   3.1890   3.2033   3.2083   3.2306   3.2505   3.2522   3.4180
     3.4437   3.5184   3.5193   3.6122   3.6164   3.7547   3.9362   3.9495
     4.3341   4.3826   4.4232   4.4268   4.4446   4.6991   4.7874   4.8200
     4.8297   4.8371   5.0317   5.2592   5.2912   5.2996   5.7531   5.7734
     5.8200   5.9743   5.9933   6.0271   6.0469   6.1947   6.1999   6.2486
     6.3495   6.6466   6.6908   6.7635   6.9158   6.9618   7.0543   7.1402
     7.1635   7.2150   7.2580   7.5009   7.6990   7.7371   8.0187   8.0642
     8.4566   8.6041   8.6116   8.7149   8.7495   8.8822   9.1441   9.1874
     9.2719   9.3613   9.3990   9.5288   9.5713   9.6052   9.7532   9.7855
     9.8292  10.0151  10.0901  10.1525  10.2024  10.4043  10.4158  10.5189
    10.5540  10.6544  10.8364  10.8992  10.9776  11.0201  11.1073  11.1881
    11.2131  11.2988  11.4238  11.5793  11.5932  11.6437  11.6606  11.7371
    11.7991  11.8980  11.9310  11.9558  12.0004  12.0866  12.1415  12.2257
    12.3135  12.3879  12.4899  12.5132  12.5699  12.6373  12.6879  12.7314
    12.7461  12.8104  12.8436  12.9021  12.9670  13.1015  13.1494  13.1977
    13.3224  13.3593  13.3952  13.4293  13.5225  13.5836  13.6384  13.6914
    13.7386  13.7607

     the Fermi energy is     4.7487 ev

!    total energy              =  -21903.74712706 Ry
     Harris-Foulkes estimate   =  -21903.74712708 Ry
     estimated scf accuracy    <          3.6E-09 Ry

     The total energy is the sum of the following terms:

     one-electron contribution = -209148.79825300 Ry
     hartree contribution      =  104781.66815875 Ry
     xc contribution           =   -2143.30098098 Ry
     ewald contribution        =   84606.73725674 Ry
     smearing contrib. (-TS)   =      -0.05330856 Ry

     convergence has been achieved in  39 iterations
 
     init_run     :     80.61s CPU     82.69s WALL (       1 calls)
     electrons    :  19594.18s CPU  19894.00s WALL (       1 calls)

     Called by init_run:
     wfcinit      :     69.40s CPU     70.90s WALL (       1 calls)
     potinit      :      7.55s CPU      7.70s WALL (       1 calls)
     hinit0       :      1.73s CPU      1.76s WALL (       1 calls)

     Called by electrons:
     c_bands      :  18459.16s CPU  18700.55s WALL (      39 calls)
     sum_band     :    865.76s CPU    897.85s WALL (      39 calls)
     v_of_rho     :    227.77s CPU    235.86s WALL (      40 calls)
     newd         :     38.41s CPU     56.92s WALL (      40 calls)
     mix_rho      :      6.39s CPU      6.49s WALL (      39 calls)

     Called by c_bands:
     init_us_2    :     13.42s CPU     13.50s WALL (     790 calls)
     cegterg      :  18342.78s CPU  18580.07s WALL (     390 calls)

     Called by sum_band:
     sum_band:bec :      2.20s CPU      2.21s WALL (     390 calls)
     addusdens    :     32.94s CPU     53.37s WALL (      39 calls)

     Called by *egterg:
     h_psi        :   3877.56s CPU   3946.25s WALL (    2171 calls)
     s_psi        :    380.55s CPU    380.76s WALL (    2171 calls)
     g_psi        :      5.54s CPU      5.57s WALL (    1771 calls)
     cdiaghg      :  11230.27s CPU  11302.27s WALL (    2161 calls)

     Called by h_psi:
     h_psi:pot    :   3868.61s CPU   3920.20s WALL (    2171 calls)
     h_psi:calbec :    676.11s CPU    676.84s WALL (    2171 calls)
     vloc_psi     :   2810.74s CPU   2860.63s WALL (    2171 calls)
     add_vuspsi   :    381.73s CPU    382.71s WALL (    2171 calls)

     General routines
     calbec       :    893.06s CPU    893.95s WALL (    2561 calls)
     fft          :    205.83s CPU    207.26s WALL (    2519 calls)
     ffts         :      9.22s CPU      9.24s WALL (      79 calls)
     fftw         :   3198.33s CPU   3255.31s WALL ( 1546788 calls)
     interpolate  :      3.72s CPU      3.75s WALL (      40 calls)
 
     Parallel routines
     fft_scatt_xy :    199.93s CPU    201.69s WALL ( 1549386 calls)
     fft_scatt_yz :   2385.34s CPU   2432.39s WALL ( 1549386 calls)
 
     PWSCF        :     5h27m CPU       27h 5m WALL

      32h
 
   This run was terminated on:   9:16:11  23Nov2019            

=------------------------------------------------------------------------------=
   JOB DONE.
=------------------------------------------------------------------------------=
