
     Program PWSCF v.6.3MaX starts on 21Nov2019 at  5:47: 7 

     This program is part of the open-source Quantum ESPRESSO suite
     for quantum simulation of materials; please cite
         "P. Giannozzi et al., J. Phys.:Condens. Matter 21 395502 (2009);
         "P. Giannozzi et al., J. Phys.:Condens. Matter 29 465901 (2017);
          URL http://www.quantum-espresso.org", 
     in publications or presentations arising from this work. More details at
     http://www.quantum-espresso.org/quote

     Parallel version (MPI), running on    16 processors

     MPI processes distributed on     2 nodes
     R & G space division:  proc/nbgrp/npool/nimage =      16
     Waiting for input...
     Reading input from standard input

     Current dimensions of program PWSCF are:
     Max number of different atomic species (ntypx) = 10
     Max number of k-points (npk) =  40000
     Max angular momentum in pseudopotentials (lmaxx) =  3
     Message from routine iosys:
     minimal I/O required, wf_collect reset to FALSE

     IMPORTANT: XC functional enforced from input :
     Exchange-correlation      = VDW-DF ( 1  4  4  0 1 0)
     Any further DFT definition will be discarded
     Please, verify this is what you really want


     Subspace diagonalization in iterative solution of the eigenvalue problem:
     one sub-group per band group will be used
     scalapack distributed-memory algorithm (size of sub-group:  2*  2 procs)

 
     Parallelization info
     --------------------
     sticks:   dense  smooth     PW     G-vecs:    dense   smooth      PW
     Min         565     189     51               159513    30701    4383
     Max         566     190     52               159526    30710    4400
     Sum        9055    3037    823              2552337   491295   70261
 


     bravais-lattice index     =            0
     lattice parameter (alat)  =      14.8058  a.u.
     unit-cell volume          =   10282.4791 (a.u.)^3
     number of atoms/cell      =           66
     number of atomic types    =            3
     number of electrons       =      1056.00
     number of Kohn-Sham states=          634
     kinetic-energy cutoff     =      50.0000  Ry
     charge density cutoff     =     600.0000  Ry
     convergence threshold     =      1.0E-08
     mixing beta               =       0.3000
     number of iterations used =            8  plain     mixing
     Exchange-correlation      = VDW-DF ( 1  4  4  0 1 0)

     celldm(1)=  14.805786  celldm(2)=   0.000000  celldm(3)=   0.000000
     celldm(4)=   0.000000  celldm(5)=   0.000000  celldm(6)=   0.000000

     crystal axes: (cart. coord. in units of alat)
               a(1) = (   1.000000   0.000000   0.000000 )  
               a(2) = (   0.500000   0.866025   0.000000 )  
               a(3) = (   0.000000   0.000000   3.658245 )  

     reciprocal axes: (cart. coord. in units 2 pi/alat)
               b(1) = (  1.000000 -0.577350  0.000000 )  
               b(2) = (  0.000000  1.154701  0.000000 )  
               b(3) = (  0.000000  0.000000  0.273355 )  


     PseudoPot. # 1 for Cu read from file:
     /deac/thonhauserGrp/chakrad/calculations/atomandmolecule-qe6.2.1-i2012-C6modif/all_pbe_UPF_v1.5/cu_pbe_v1.2.uspp.F.UPF
     MD5 check sum: 6e991ff952a84172a2a52a1c1e996048
     Pseudo is Ultrasoft + core correction, Zval = 19.0
     Generated by new atomic code, or converted to UPF format
     Using radial grid of  867 points,  6 beta functions with: 
                l(1) =   0
                l(2) =   0
                l(3) =   1
                l(4) =   1
                l(5) =   2
                l(6) =   2
     Q(r) pseudized with  8 coefficients,  rinner =    1.150   1.150   1.150
                                                       1.150   1.150

     PseudoPot. # 2 for C  read from file:
     /deac/thonhauserGrp/chakrad/calculations/atomandmolecule-qe6.2.1-i2012-C6modif/all_pbe_UPF_v1.5/c_pbe_v1.2.uspp.F.UPF
     MD5 check sum: d1aef80898a10debaa0f26306b886e00
     Pseudo is Ultrasoft + core correction, Zval =  4.0
     Generated by new atomic code, or converted to UPF format
     Using radial grid of  721 points,  4 beta functions with: 
                l(1) =   0
                l(2) =   0
                l(3) =   1
                l(4) =   1
     Q(r) pseudized with  8 coefficients,  rinner =    1.100   1.100   1.100


     PseudoPot. # 3 for H  read from file:
     /deac/thonhauserGrp/chakrad/calculations/atomandmolecule-qe6.2.1-i2012-C6modif/all_pbe_UPF_v1.5/h_pbe_v1.4.uspp.F.UPF
     MD5 check sum: 761ae9a214b05c3daf00ab9f6b793d6f
     Pseudo is Ultrasoft, Zval =  1.0
     Generated by new atomic code, or converted to UPF format
     Using radial grid of  615 points,  2 beta functions with: 
                l(1) =   0
                l(2) =   0
     Q(r) pseudized with  8 coefficients,  rinner =    0.700

     vdW kernel table read from file vdW_kernel_table
     MD5 check sum: cc9485f6209b1096fbef62427c856dab

     atomic species   valence    mass     pseudopotential
        Cu            19.00     1.00000     Cu( 1.00)
        C              4.00     1.00000     C ( 1.00)
        H              1.00     1.00000     H ( 1.00)

     No symmetry found



   Cartesian axes

     site n.     atom                  positions (alat units)
         1           Cu  tau(   1) = (   0.1666667   0.0962250   0.2552686  )
         2           Cu  tau(   2) = (   0.5000000   0.0962250   0.2552686  )
         3           Cu  tau(   3) = (   0.8333333   0.0962250   0.2552686  )
         4           Cu  tau(   4) = (   0.3333333   0.3849002   0.2552686  )
         5           Cu  tau(   5) = (   0.6666667   0.3849002   0.2552686  )
         6           Cu  tau(   6) = (   1.0000000   0.3849002   0.2552686  )
         7           Cu  tau(   7) = (   0.5000000   0.6735753   0.2552686  )
         8           Cu  tau(   8) = (   0.8333333   0.6735753   0.2552686  )
         9           Cu  tau(   9) = (   1.1666667   0.6735753   0.2552686  )
        10           Cu  tau(  10) = (   0.0000000   0.1924501   0.5274341  )
        11           Cu  tau(  11) = (   0.3333333   0.1924501   0.5274341  )
        12           Cu  tau(  12) = (   0.6666667   0.1924501   0.5274341  )
        13           Cu  tau(  13) = (   0.1666667   0.4811252   0.5274341  )
        14           Cu  tau(  14) = (   0.5000000   0.4811252   0.5274341  )
        15           Cu  tau(  15) = (   0.8333333   0.4811252   0.5274341  )
        16           Cu  tau(  16) = (   0.3333333   0.7698004   0.5274341  )
        17           Cu  tau(  17) = (   0.6666667   0.7698004   0.5274341  )
        18           Cu  tau(  18) = (   1.0000000   0.7698004   0.5274341  )
        19           Cu  tau(  19) = (   0.0000000   0.0000000   0.7995997  )
        20           Cu  tau(  20) = (   0.3333333   0.0000000   0.7995997  )
        21           Cu  tau(  21) = (   0.6666667   0.0000000   0.7995997  )
        22           Cu  tau(  22) = (   0.1666667   0.2886751   0.7995997  )
        23           Cu  tau(  23) = (   0.5000000   0.2886751   0.7995997  )
        24           Cu  tau(  24) = (   0.8333333   0.2886751   0.7995997  )
        25           Cu  tau(  25) = (   0.3333333   0.5773503   0.7995997  )
        26           Cu  tau(  26) = (   0.6666667   0.5773503   0.7995997  )
        27           Cu  tau(  27) = (   1.0000000   0.5773503   0.7995997  )
        28           Cu  tau(  28) = (   0.1666659   0.0962246   1.0691130  )
        29           Cu  tau(  29) = (   0.5000000   0.0962241   1.0691104  )
        30           Cu  tau(  30) = (   0.8333341   0.0962246   1.0691130  )
        31           Cu  tau(  31) = (   0.3333325   0.3849006   1.0691104  )
        32           Cu  tau(  32) = (   0.6666675   0.3849006   1.0691104  )
        33           Cu  tau(  33) = (   1.0000000   0.3849003   1.0691143  )
        34           Cu  tau(  34) = (   0.5000000   0.6735762   1.0691130  )
        35           Cu  tau(  35) = (   0.8333334   0.6735753   1.0691143  )
        36           Cu  tau(  36) = (   1.1666666   0.6735753   1.0691143  )
        37           Cu  tau(  37) = (   0.0000000   0.1924486   1.3387540  )
        38           Cu  tau(  38) = (   0.3333330   0.1924499   1.3387465  )
        39           Cu  tau(  39) = (   0.6666670   0.1924499   1.3387465  )
        40           Cu  tau(  40) = (   0.1666676   0.4811247   1.3387504  )
        41           Cu  tau(  41) = (   0.5000000   0.4811256   1.3387465  )
        42           Cu  tau(  42) = (   0.8333324   0.4811247   1.3387504  )
        43           Cu  tau(  43) = (   0.3333346   0.7698011   1.3387540  )
        44           Cu  tau(  44) = (   0.6666654   0.7698011   1.3387540  )
        45           Cu  tau(  45) = (   1.0000000   0.7698014   1.3387504  )
        46           Cu  tau(  46) = (   0.0000000   0.0000000   1.6083750  )
        47           Cu  tau(  47) = (   0.3333333   0.0000005   1.6083624  )
        48           Cu  tau(  48) = (   0.6666667   0.0000005   1.6083624  )
        49           Cu  tau(  49) = (   0.1666671   0.2886748   1.6083624  )
        50           Cu  tau(  50) = (   0.5000000   0.2886751   1.6083553  )
        51           Cu  tau(  51) = (   0.8333329   0.2886748   1.6083624  )
        52           Cu  tau(  52) = (   0.3333338   0.5773500   1.6083624  )
        53           Cu  tau(  53) = (   0.6666662   0.5773500   1.6083624  )
        54           Cu  tau(  54) = (   1.0000000   0.5773503   1.6083570  )
        55           C   tau(  55) = (   0.6567407   0.3959883   2.0295111  )
        56           C   tau(  56) = (   0.5046394   0.3028152   2.0295110  )
        57           C   tau(  57) = (   0.3478975   0.3879497   2.0295111  )
        58           C   tau(  58) = (   0.3432593   0.5662630   2.0295111  )
        59           C   tau(  59) = (   0.4953606   0.6594361   2.0295110  )
        60           C   tau(  60) = (   0.6521025   0.5743016   2.0295111  )
        61           H   tau(  61) = (   0.7789959   0.3295665   2.0295893  )
        62           H   tau(  62) = (   0.5082587   0.1637263   2.0295894  )
        63           H   tau(  63) = (   0.2292624   0.3152577   2.0295893  )
        64           H   tau(  64) = (   0.2210041   0.6326847   2.0295893  )
        65           H   tau(  65) = (   0.4917413   0.7985249   2.0295894  )
        66           H   tau(  66) = (   0.7707376   0.6469936   2.0295893  )

     number of k points=    10  gaussian smearing, width (Ry)=  0.0200
                       cart. coord. in units 2pi/alat
        k(    1) = (   0.0000000   0.0000000   0.0000000), wk =   0.1250000
        k(    2) = (   0.0000000   0.2886751   0.0000000), wk =   0.2500000
        k(    3) = (   0.0000000  -0.5773503   0.0000000), wk =   0.1250000
        k(    4) = (   0.2500000  -0.7216878   0.0000000), wk =   0.2500000
        k(    5) = (  -0.2500000   0.1443376   0.0000000), wk =   0.2500000
        k(    6) = (   0.2500000   0.1443376   0.0000000), wk =   0.2500000
        k(    7) = (   0.5000000  -0.2886751   0.0000000), wk =   0.1250000
        k(    8) = (  -0.5000000  -0.2886751   0.0000000), wk =   0.1250000
        k(    9) = (  -0.2500000  -0.7216878   0.0000000), wk =   0.2500000
        k(   10) = (  -0.5000000  -0.5773503   0.0000000), wk =   0.2500000

     Dense  grid:  2552337 G-vectors     FFT dimensions: ( 120, 120, 432)

     Smooth grid:   491295 G-vectors     FFT dimensions: (  72,  72, 243)

     Estimated max dynamical RAM per process >       1.14 GB

     Estimated total dynamical RAM >      18.26 GB

     Initial potential from superposition of free atoms
     Check: negative starting charge=   -0.000765

     starting charge 1001.99960, renormalised to 1056.00000

     negative rho (up, down):  8.057E-04 0.000E+00


     %%%%%%%%%%%%%%%%%%%%%%%%%%%%%%%%%%%%%%%%%%%%%%%%%%%%%%%%%%%%%%%%%%%%%%%%
     %                                                                      %
     % You are using vdW-DF, which was implemented by the Thonhauser group. %
     % Please cite the following two papers that made this development      %
     % possible and the two reviews that describe the various versions:     %
     %                                                                      %
     %   T. Thonhauser et al., PRL 115, 136402 (2015).                      %
     %   T. Thonhauser et al., PRB 76, 125112 (2007).                       %
     %   K. Berland et al., Rep. Prog. Phys. 78, 066501 (2015).             %
     %   D.C. Langreth et al., J. Phys.: Condens. Matter 21, 084203 (2009). %
     %                                                                      %
     %                                                                      %
     % If you are calculating the stress with vdW-DF, please also cite:     %
     %                                                                      %
     %   R. Sabatini et al., J. Phys.: Condens. Matter 24, 424209 (2012).   %
     %                                                                      %
     %%%%%%%%%%%%%%%%%%%%%%%%%%%%%%%%%%%%%%%%%%%%%%%%%%%%%%%%%%%%%%%%%%%%%%%%


     Starting wfcs are  732 randomized atomic wfcs

     total cpu time spent up to now is       98.4 secs

     Self-consistent Calculation

     iteration #  1     ecut=    50.00 Ry     beta= 0.30
     Davidson diagonalization with overlap
     ethr =  1.00E-02,  avg # of iterations =  5.8

     negative rho (up, down):  4.857E-04 0.000E+00

     total cpu time spent up to now is     1287.4 secs

     total energy              =  -18916.96968938 Ry
     Harris-Foulkes estimate   =  -22008.05270810 Ry
     estimated scf accuracy    <    6109.27318191 Ry

     iteration #  2     ecut=    50.00 Ry     beta= 0.30
     Davidson diagonalization with overlap
     ethr =  1.00E-02,  avg # of iterations = 19.0

     negative rho (up, down):  5.279E-04 0.000E+00

     total cpu time spent up to now is     4027.8 secs

     total energy              =  -19251.71663068 Ry
     Harris-Foulkes estimate   =  -39052.92442260 Ry
     estimated scf accuracy    <  281538.77673057 Ry

     iteration #  3     ecut=    50.00 Ry     beta= 0.30
     Davidson diagonalization with overlap
     ethr =  1.00E-02,  avg # of iterations =  8.0

     negative rho (up, down):  6.074E-04 0.000E+00

     total cpu time spent up to now is     5627.3 secs

     total energy              =  -21752.68296568 Ry
     Harris-Foulkes estimate   =  -23435.54336969 Ry
     estimated scf accuracy    <   42617.73776750 Ry

     iteration #  4     ecut=    50.00 Ry     beta= 0.30
     Davidson diagonalization with overlap
     ethr =  1.00E-02,  avg # of iterations =  7.3

     negative rho (up, down):  8.311E-04 0.000E+00

     total cpu time spent up to now is     6677.4 secs

     total energy              =  -21751.16205830 Ry
     Harris-Foulkes estimate   =  -22133.01336477 Ry
     estimated scf accuracy    <   10380.37853620 Ry

     iteration #  5     ecut=    50.00 Ry     beta= 0.30
     Davidson diagonalization with overlap
     ethr =  1.00E-02,  avg # of iterations =  6.0

     negative rho (up, down):  2.015E-04 0.000E+00

     total cpu time spent up to now is     7876.8 secs

     total energy              =  -21705.83495616 Ry
     Harris-Foulkes estimate   =  -22160.83975430 Ry
     estimated scf accuracy    <    9392.88676012 Ry

     iteration #  6     ecut=    50.00 Ry     beta= 0.30
     Davidson diagonalization with overlap
     ethr =  1.00E-02,  avg # of iterations =  5.6

     negative rho (up, down):  2.489E-04 0.000E+00

     total cpu time spent up to now is     8841.9 secs

     total energy              =  -21871.84202709 Ry
     Harris-Foulkes estimate   =  -21975.22755561 Ry
     estimated scf accuracy    <    1036.26708308 Ry

     iteration #  7     ecut=    50.00 Ry     beta= 0.30
     Davidson diagonalization with overlap
     ethr =  1.00E-02,  avg # of iterations =  3.0

     negative rho (up, down):  3.338E-04 0.000E+00

     total cpu time spent up to now is     9200.7 secs

     total energy              =  -21915.11248007 Ry
     Harris-Foulkes estimate   =  -21940.74262251 Ry
     estimated scf accuracy    <    1063.73524269 Ry

     iteration #  8     ecut=    50.00 Ry     beta= 0.30
     Davidson diagonalization with overlap
     ethr =  1.00E-02,  avg # of iterations =  1.5

     negative rho (up, down):  5.266E-04 0.000E+00

     total cpu time spent up to now is     9443.8 secs

     total energy              =  -21910.86267569 Ry
     Harris-Foulkes estimate   =  -21926.74183800 Ry
     estimated scf accuracy    <     131.22169902 Ry

     iteration #  9     ecut=    50.00 Ry     beta= 0.30
     Davidson diagonalization with overlap
     ethr =  1.00E-02,  avg # of iterations =  3.0

     negative rho (up, down):  6.564E-04 0.000E+00

     total cpu time spent up to now is     9701.7 secs

     total energy              =  -21912.30770006 Ry
     Harris-Foulkes estimate   =  -21917.42693928 Ry
     estimated scf accuracy    <     117.74948860 Ry

     iteration # 10     ecut=    50.00 Ry     beta= 0.30
     Davidson diagonalization with overlap
     ethr =  1.00E-02,  avg # of iterations =  1.0

     negative rho (up, down):  2.710E-02 0.000E+00

     total cpu time spent up to now is     9874.7 secs

     total energy              =  -21896.58866264 Ry
     Harris-Foulkes estimate   =  -21913.09400836 Ry
     estimated scf accuracy    <      70.21885682 Ry

     iteration # 11     ecut=    50.00 Ry     beta= 0.30
     Davidson diagonalization with overlap
     ethr =  6.65E-03,  avg # of iterations =  4.3

     negative rho (up, down):  1.301E-06 0.000E+00

     total cpu time spent up to now is    10293.9 secs

     total energy              =  -21882.72865062 Ry
     Harris-Foulkes estimate   =  -21924.72324663 Ry
     estimated scf accuracy    <    1337.48695401 Ry

     iteration # 12     ecut=    50.00 Ry     beta= 0.30
     Davidson diagonalization with overlap
     ethr =  6.65E-03,  avg # of iterations =  3.3

     negative rho (up, down):  5.145E-06 0.000E+00

     total cpu time spent up to now is    10549.7 secs

     total energy              =  -21902.31799185 Ry
     Harris-Foulkes estimate   =  -21906.88461731 Ry
     estimated scf accuracy    <      57.47097861 Ry

     iteration # 13     ecut=    50.00 Ry     beta= 0.30
     Davidson diagonalization with overlap
     ethr =  5.44E-03,  avg # of iterations =  2.0

     negative rho (up, down):  3.986E-06 0.000E+00

     total cpu time spent up to now is    10747.2 secs

     total energy              =  -21903.87096057 Ry
     Harris-Foulkes estimate   =  -21904.43138116 Ry
     estimated scf accuracy    <      15.05046400 Ry

     iteration # 14     ecut=    50.00 Ry     beta= 0.30
     Davidson diagonalization with overlap
     ethr =  1.43E-03,  avg # of iterations =  4.0

     negative rho (up, down):  2.378E-06 0.000E+00

     total cpu time spent up to now is    11017.1 secs

     total energy              =  -21904.07226075 Ry
     Harris-Foulkes estimate   =  -21904.46824416 Ry
     estimated scf accuracy    <       8.41479447 Ry

     iteration # 15     ecut=    50.00 Ry     beta= 0.30
     Davidson diagonalization with overlap
     ethr =  7.97E-04,  avg # of iterations =  4.4

     negative rho (up, down):  3.324E-06 0.000E+00

     total cpu time spent up to now is    11290.1 secs

     total energy              =  -21904.03022839 Ry
     Harris-Foulkes estimate   =  -21904.20941099 Ry
     estimated scf accuracy    <       6.48470854 Ry

     iteration # 16     ecut=    50.00 Ry     beta= 0.30
     Davidson diagonalization with overlap
     ethr =  6.14E-04,  avg # of iterations =  1.7

     negative rho (up, down):  4.574E-06 0.000E+00

     total cpu time spent up to now is    11477.0 secs

     total energy              =  -21903.92355385 Ry
     Harris-Foulkes estimate   =  -21904.09560999 Ry
     estimated scf accuracy    <       5.52446752 Ry

     iteration # 17     ecut=    50.00 Ry     beta= 0.30
     Davidson diagonalization with overlap
     ethr =  5.23E-04,  avg # of iterations =  1.1

     negative rho (up, down):  6.712E-06 0.000E+00

     total cpu time spent up to now is    11644.3 secs

     total energy              =  -21903.89779441 Ry
     Harris-Foulkes estimate   =  -21903.96237241 Ry
     estimated scf accuracy    <       2.55428457 Ry

     iteration # 18     ecut=    50.00 Ry     beta= 0.30
     Davidson diagonalization with overlap
     ethr =  2.42E-04,  avg # of iterations =  5.6

     negative rho (up, down):  1.296E-05 0.000E+00

     total cpu time spent up to now is    11958.4 secs

     total energy              =  -21903.84867864 Ry
     Harris-Foulkes estimate   =  -21903.90919709 Ry
     estimated scf accuracy    <       2.35352773 Ry

     iteration # 19     ecut=    50.00 Ry     beta= 0.30
     Davidson diagonalization with overlap
     ethr =  2.23E-04,  avg # of iterations =  6.6

     negative rho (up, down):  2.541E-05 0.000E+00

     total cpu time spent up to now is    12296.6 secs

     total energy              =  -21903.82288413 Ry
     Harris-Foulkes estimate   =  -21903.85734369 Ry
     estimated scf accuracy    <       1.08766224 Ry

     iteration # 20     ecut=    50.00 Ry     beta= 0.30
     Davidson diagonalization with overlap
     ethr =  1.03E-04,  avg # of iterations =  6.0

     negative rho (up, down):  2.148E-04 0.000E+00

     total cpu time spent up to now is    12628.9 secs

     total energy              =  -21903.72732442 Ry
     Harris-Foulkes estimate   =  -21903.82608398 Ry
     estimated scf accuracy    <       0.89708327 Ry

     iteration # 21     ecut=    50.00 Ry     beta= 0.30
     Davidson diagonalization with overlap
     ethr =  8.50E-05,  avg # of iterations =  7.0

     negative rho (up, down):  4.036E-04 0.000E+00

     total cpu time spent up to now is    13036.9 secs

     total energy              =  -21903.75918965 Ry
     Harris-Foulkes estimate   =  -21903.77439654 Ry
     estimated scf accuracy    <       0.21978452 Ry

     iteration # 22     ecut=    50.00 Ry     beta= 0.30
     Davidson diagonalization with overlap
     ethr =  2.08E-05,  avg # of iterations =  4.6

     negative rho (up, down):  5.770E-04 0.000E+00

     total cpu time spent up to now is    13335.8 secs

     total energy              =  -21903.76475129 Ry
     Harris-Foulkes estimate   =  -21903.76669681 Ry
     estimated scf accuracy    <       0.01126561 Ry

     iteration # 23     ecut=    50.00 Ry     beta= 0.30
     Davidson diagonalization with overlap
     ethr =  1.07E-06,  avg # of iterations =  7.8

     negative rho (up, down):  8.520E-04 0.000E+00

     total cpu time spent up to now is    13793.5 secs

     total energy              =  -21903.76558253 Ry
     Harris-Foulkes estimate   =  -21903.76613928 Ry
     estimated scf accuracy    <       0.00394348 Ry

     iteration # 24     ecut=    50.00 Ry     beta= 0.30
     Davidson diagonalization with overlap
     ethr =  3.73E-07,  avg # of iterations =  5.4

     negative rho (up, down):  1.121E-03 0.000E+00

     total cpu time spent up to now is    14134.4 secs

     total energy              =  -21903.76609764 Ry
     Harris-Foulkes estimate   =  -21903.76607787 Ry
     estimated scf accuracy    <       0.00138329 Ry

     iteration # 25     ecut=    50.00 Ry     beta= 0.30
     Davidson diagonalization with overlap
     ethr =  1.31E-07,  avg # of iterations =  5.8

     negative rho (up, down):  1.376E-03 0.000E+00

     total cpu time spent up to now is    14485.1 secs

     total energy              =  -21903.76626788 Ry
     Harris-Foulkes estimate   =  -21903.76621647 Ry
     estimated scf accuracy    <       0.00042238 Ry

     iteration # 26     ecut=    50.00 Ry     beta= 0.30
     Davidson diagonalization with overlap
     ethr =  4.00E-08,  avg # of iterations =  5.8

     negative rho (up, down):  1.650E-03 0.000E+00

     total cpu time spent up to now is    14826.3 secs

     total energy              =  -21903.76633833 Ry
     Harris-Foulkes estimate   =  -21903.76630411 Ry
     estimated scf accuracy    <       0.00010685 Ry

     iteration # 27     ecut=    50.00 Ry     beta= 0.30
     Davidson diagonalization with overlap
     ethr =  1.01E-08,  avg # of iterations =  6.7

     negative rho (up, down):  1.989E-03 0.000E+00

     total cpu time spent up to now is    15200.6 secs

     total energy              =  -21903.76636399 Ry
     Harris-Foulkes estimate   =  -21903.76635074 Ry
     estimated scf accuracy    <       0.00005750 Ry

     iteration # 28     ecut=    50.00 Ry     beta= 0.30
     Davidson diagonalization with overlap
     ethr =  5.44E-09,  avg # of iterations =  4.2

     negative rho (up, down):  2.271E-03 0.000E+00

     total cpu time spent up to now is    15480.7 secs

     total energy              =  -21903.76637036 Ry
     Harris-Foulkes estimate   =  -21903.76637011 Ry
     estimated scf accuracy    <       0.00002338 Ry

     iteration # 29     ecut=    50.00 Ry     beta= 0.30
     Davidson diagonalization with overlap
     ethr =  2.21E-09,  avg # of iterations =  4.0

     negative rho (up, down):  2.310E-03 0.000E+00

     total cpu time spent up to now is    15766.3 secs

     total energy              =  -21903.76637139 Ry
     Harris-Foulkes estimate   =  -21903.76637332 Ry
     estimated scf accuracy    <       0.00003152 Ry

     iteration # 30     ecut=    50.00 Ry     beta= 0.30
     Davidson diagonalization with overlap
     ethr =  2.21E-09,  avg # of iterations =  1.0

     negative rho (up, down):  2.470E-03 0.000E+00

     total cpu time spent up to now is    15948.0 secs

     total energy              =  -21903.76637160 Ry
     Harris-Foulkes estimate   =  -21903.76637308 Ry
     estimated scf accuracy    <       0.00001019 Ry

     iteration # 31     ecut=    50.00 Ry     beta= 0.30
     Davidson diagonalization with overlap
     ethr =  9.65E-10,  avg # of iterations =  2.0

     negative rho (up, down):  2.456E-03 0.000E+00

     total cpu time spent up to now is    16170.3 secs

     total energy              =  -21903.76637204 Ry
     Harris-Foulkes estimate   =  -21903.76637229 Ry
     estimated scf accuracy    <       0.00000353 Ry

     iteration # 32     ecut=    50.00 Ry     beta= 0.30
     Davidson diagonalization with overlap
     ethr =  3.35E-10,  avg # of iterations =  1.0

     negative rho (up, down):  2.479E-03 0.000E+00

     total cpu time spent up to now is    16344.2 secs

     total energy              =  -21903.76637207 Ry
     Harris-Foulkes estimate   =  -21903.76637228 Ry
     estimated scf accuracy    <       0.00000036 Ry

     iteration # 33     ecut=    50.00 Ry     beta= 0.30
     Davidson diagonalization with overlap
     ethr =  3.42E-11,  avg # of iterations =  2.0

     negative rho (up, down):  2.495E-03 0.000E+00

     total cpu time spent up to now is    16560.9 secs

     total energy              =  -21903.76637196 Ry
     Harris-Foulkes estimate   =  -21903.76637211 Ry
     estimated scf accuracy    <       0.00000031 Ry

     iteration # 34     ecut=    50.00 Ry     beta= 0.30
     Davidson diagonalization with overlap
     ethr =  2.90E-11,  avg # of iterations =  2.0

     negative rho (up, down):  2.503E-03 0.000E+00

     total cpu time spent up to now is    16773.0 secs

     total energy              =  -21903.76637190 Ry
     Harris-Foulkes estimate   =  -21903.76637197 Ry
     estimated scf accuracy    <       0.00000003 Ry

     iteration # 35     ecut=    50.00 Ry     beta= 0.30
     Davidson diagonalization with overlap
     ethr =  3.02E-12,  avg # of iterations =  2.0

     negative rho (up, down):  2.508E-03 0.000E+00

     total cpu time spent up to now is    17016.1 secs

     total energy              =  -21903.76637186 Ry
     Harris-Foulkes estimate   =  -21903.76637191 Ry
     estimated scf accuracy    <       0.00000002 Ry

     iteration # 36     ecut=    50.00 Ry     beta= 0.30
     Davidson diagonalization with overlap
     ethr =  1.52E-12,  avg # of iterations =  2.0

     negative rho (up, down):  2.512E-03 0.000E+00

     total cpu time spent up to now is    17232.5 secs

     End of self-consistent calculation

          k = 0.0000 0.0000 0.0000 ( 61453 PWs)   bands (ev):

  -107.8026-107.7995-107.7953-107.7953-107.7951-107.7946-107.7946-107.7943
  -107.7931-107.7917-107.7917-107.7914-107.7914-107.7906-107.7906-107.7903
  -107.7900-107.7900-107.7861-107.7861-107.7859-107.7847-107.7846-107.7840
  -107.7820-107.7820-107.7818-107.7807-107.7771-107.7758-107.7758-107.7758
  -107.7758-107.7747-107.7735-107.7723-107.5784-107.5748-107.5747-107.5738
  -107.5720-107.5720-107.5676-107.5654-107.5654-107.5416-107.5366-107.5366
  -107.5366-107.5363-107.5363-107.5363-107.5339-107.5339 -65.2560 -65.2439
   -65.2425 -65.2425 -65.2419 -65.2419 -65.2411 -65.2354 -65.2352 -65.2351
   -65.2344 -65.2343 -65.2336 -65.2336 -65.2336 -65.2308 -65.2305 -65.2305
   -65.2302 -65.2286 -65.2237 -65.2237 -65.2230 -65.2218 -65.2215 -65.2215
   -65.2202 -65.2201 -65.2201 -65.2196 -65.2196 -65.2186 -65.2186 -65.2184
   -65.2162 -65.2162 -65.2162 -65.2156 -65.2108 -65.2108 -65.2106 -65.2098
   -65.2096 -65.2096 -65.2090 -65.2090 -65.2054 -65.2054 -65.2053 -65.2028
   -65.2026 -65.2023 -65.2023 -65.2022 -65.2022 -65.2017 -65.1981 -65.1952
   -65.1952 -65.1943 -65.1943 -65.1939 -65.1936 -65.1936 -65.1930 -65.1926
   -65.1925 -65.1925 -65.1912 -65.1905 -65.1905 -65.1904 -65.1904 -65.1877
   -65.1877 -65.1845 -65.1842 -65.1842 -65.1842 -65.1838 -65.1838 -65.1831
   -65.1831 -65.1828 -65.1822 -65.1822 -65.1822 -65.1798 -65.1777 -65.1777
   -65.1774 -65.1767 -65.1767 -65.1767 -65.1763 -65.1763 -65.1708 -65.1708
   -65.1696 -65.1696 -65.1694 -65.1688 -65.1685 -65.1685 -65.1650 -65.1650
   -65.1583 -65.1583 -65.0308 -65.0308 -65.0303 -65.0275 -65.0271 -65.0271
   -65.0256 -65.0238 -65.0238 -65.0207 -64.9961 -64.9958 -64.9958 -64.9958
   -64.9956 -64.9956 -64.9956 -64.9933 -64.9933 -64.9932 -64.9932 -64.9930
   -64.9926 -64.9913 -64.9913 -64.9898 -64.9794 -64.9794 -64.9606 -64.9606
   -64.9605 -64.9605 -64.9605 -64.9600 -64.9569 -64.9538 -64.9538 -64.9519
   -64.9500 -64.9500 -64.9482 -64.9482 -64.9446 -64.9426 -64.9426 -64.9135
   -64.9089 -64.9089 -64.9089 -64.9085 -64.9085 -64.9085 -64.9062 -64.9062
   -12.7793 -10.0295 -10.0292  -6.4325  -6.4320  -4.5062  -4.0670  -3.4487
    -2.9035  -2.5219  -2.5035  -1.8674  -1.8673  -1.3951  -1.1030  -1.1014
    -1.1014  -1.1011  -1.1011  -1.1011  -0.7767  -0.6985  -0.6985  -0.6978
    -0.6978  -0.6976  -0.6745  -0.4379  -0.2009  -0.1999  -0.1999  -0.1985
    -0.1985  -0.1979  -0.1817   0.0683   0.0686   0.2498   0.2498   0.2530
     0.2545   0.2545   0.2579   0.5994   0.5994   0.6029   0.6032   0.6032
     0.6060   0.7286   0.7286   0.7293   0.7297   0.7297   0.7305   0.7779
     0.7779   0.7787   0.7787   0.7788   0.7797   0.8080   0.8080   0.8220
     0.8220   0.8316   0.8317   0.9275   0.9275   0.9367   0.9367   0.9530
     0.9530   0.9544   0.9557   0.9557   0.9569   0.9669   0.9669   0.9680
     0.9680   1.0127   1.0127   1.0602   1.0602   1.1612   1.1612   1.1653
     1.1653   1.1678   1.1682   1.1682   1.1699   1.2048   1.2048   1.3969
     1.3969   1.4044   1.4044   1.4048   1.4065   1.5368   1.5368   1.5452
     1.5452   1.5517   1.5517   1.5586   1.5586   1.5592   1.5602   1.5995
     1.6001   1.6003   1.6178   1.6659   1.6659   1.6721   1.6721   1.6727
     1.6729   1.6847   1.6848   1.7120   1.7120   1.7413   1.7417   1.7417
     1.7486   1.7486   1.7578   1.7578   1.7579   1.7593   1.7982   1.7982
     1.8024   1.8024   1.8100   1.8103   1.8103   1.8108   1.8304   1.8305
     1.8305   1.8313   1.8315   1.8315   1.8373   1.8373   1.8516   1.8640
     1.8640   1.9422   1.9422   1.9561   1.9574   1.9574   1.9605   1.9635
     1.9660   1.9766   1.9766   1.9938   1.9938   2.0085   2.0086   2.0313
     2.0313   2.0315   2.0315   2.0317   2.0324   2.0330   2.0330   2.0425
     2.0426   2.2195   2.2196   2.2199   2.2242   2.2663   2.2663   2.2890
     2.2892   2.2892   2.2901   2.2902   2.2902   2.3477   2.3477   2.3503
     2.3520   2.3675   2.3675   2.3708   2.3708   2.3933   2.3933   2.3965
     2.3965   2.4414   2.4593   2.4593   2.4878   2.4878   2.4903   2.4903
     2.4917   2.4967   2.5094   2.5094   2.5192   2.5192   2.5196   2.5203
     2.5203   2.5207   2.5210   2.5210   2.5274   2.5274   2.5944   2.5944
     2.6599   2.6601   2.6601   2.6606   2.6607   2.6607   2.7153   2.7161
     2.7161   2.7179   2.7201   2.7201   2.7201   2.7206   2.7207   2.7207
     2.7261   2.7261   2.7808   2.7808   2.7878   2.7881   2.7881   2.7889
     2.7889   2.7889   2.7998   2.7999   2.7999   2.8004   2.8005   2.8005
     2.8234   2.8234   2.8234   2.8239   2.8240   2.8240   2.8485   2.8485
     2.8665   2.8665   2.8863   2.8880   2.8880   2.8889   2.8889   2.8896
     2.8975   2.8976   2.9180   2.9183   2.9183   2.9189   2.9189   2.9192
     2.9455   2.9455   2.9481   2.9481   2.9523   2.9523   2.9717   2.9719
     2.9838   2.9840   2.9840   2.9850   2.9850   2.9852   3.0091   3.0091
     3.0097   3.0134   3.0134   3.0176   3.0530   3.0530   3.0630   3.0631
     3.0631   3.0642   3.0643   3.0643   3.8945   3.9874   3.9874   3.9906
     4.0202   4.0374   4.0374   4.4997   5.4074   5.4074   5.4205   5.4500
     5.4812   5.4812   6.9619   6.9620   7.0323   7.1833   7.2976   7.2978
     7.2978   7.4448   7.4449   7.8580   7.8580   7.8582   7.8584   7.8744
     7.8744   8.1814   8.2498   8.2498   8.2718   8.2718   8.4679   8.6613
     8.6638   8.7948   8.8848   8.8849   8.9186   8.9197   9.0172   9.0788
     9.0788   9.2956   9.4678   9.5419   9.5419   9.5495   9.5495   9.8302
     9.8304   9.8785   9.9245   9.9269  10.5579  10.5898  10.6832  10.6832
    10.7187  10.7187  10.8719  10.8719  10.9163  10.9164  10.9703  11.0584
    11.0584  11.1210  11.2345  11.3331  11.3331  11.3671  11.3671  11.3890
    11.5001  11.6435  11.6436  11.7974  11.8361  11.8361  11.8737  11.8737
    11.9223  11.9340  11.9340  11.9622  11.9622  12.0331  12.1329  12.2307
    12.2307  12.2573  12.3108  12.3581  12.3581  12.4840  12.4840  12.7456
    12.8808  12.8849  12.8851  13.0135  13.0135  13.0290  13.0417  13.0544
    13.1357  13.1471

          k = 0.0000 0.2887 0.0000 ( 61417 PWs)   bands (ev):

  -107.8023-107.7994-107.7967-107.7958-107.7951-107.7944-107.7937-107.7934
  -107.7928-107.7921-107.7920-107.7913-107.7912-107.7909-107.7907-107.7900
  -107.7899-107.7897-107.7871-107.7863-107.7858-107.7844-107.7844-107.7836
  -107.7821-107.7820-107.7818-107.7803-107.7777-107.7765-107.7764-107.7752
  -107.7750-107.7743-107.7737-107.7723-107.5781-107.5753-107.5748-107.5738
  -107.5720-107.5718-107.5676-107.5655-107.5654-107.5411-107.5382-107.5371
  -107.5371-107.5356-107.5356-107.5352-107.5341-107.5341 -65.2546 -65.2458
   -65.2449 -65.2438 -65.2429 -65.2426 -65.2419 -65.2415 -65.2389 -65.2388
   -65.2377 -65.2376 -65.2361 -65.2359 -65.2315 -65.2304 -65.2301 -65.2283
   -65.2274 -65.2266 -65.2262 -65.2260 -65.2258 -65.2254 -65.2237 -65.2237
   -65.2231 -65.2224 -65.2188 -65.2188 -65.2162 -65.2157 -65.2156 -65.2145
   -65.2143 -65.2136 -65.2131 -65.2127 -65.2108 -65.2107 -65.2085 -65.2085
   -65.2058 -65.2051 -65.2048 -65.2045 -65.2037 -65.2037 -65.2026 -65.2019
   -65.2012 -65.2004 -65.1997 -65.1990 -65.1987 -65.1981 -65.1975 -65.1971
   -65.1965 -65.1953 -65.1948 -65.1948 -65.1944 -65.1942 -65.1941 -65.1919
   -65.1915 -65.1898 -65.1897 -65.1889 -65.1887 -65.1877 -65.1873 -65.1871
   -65.1867 -65.1862 -65.1862 -65.1856 -65.1853 -65.1853 -65.1852 -65.1839
   -65.1836 -65.1823 -65.1820 -65.1811 -65.1806 -65.1803 -65.1800 -65.1798
   -65.1794 -65.1794 -65.1777 -65.1764 -65.1763 -65.1742 -65.1731 -65.1730
   -65.1730 -65.1719 -65.1715 -65.1694 -65.1693 -65.1686 -65.1661 -65.1654
   -65.1623 -65.1592 -65.0400 -65.0353 -65.0348 -65.0321 -65.0311 -65.0210
   -65.0205 -65.0152 -65.0148 -65.0110 -65.0073 -65.0018 -65.0016 -65.0006
   -65.0004 -64.9982 -64.9964 -64.9950 -64.9922 -64.9914 -64.9887 -64.9885
   -64.9881 -64.9834 -64.9829 -64.9828 -64.9804 -64.9800 -64.9645 -64.9644
   -64.9634 -64.9605 -64.9603 -64.9567 -64.9564 -64.9540 -64.9538 -64.9525
   -64.9520 -64.9500 -64.9499 -64.9493 -64.9447 -64.9426 -64.9426 -64.9131
   -64.9103 -64.9093 -64.9093 -64.9079 -64.9079 -64.9075 -64.9064 -64.9064
   -12.7785 -10.0330 -10.0300  -6.4352  -6.4279  -4.4797  -3.8536  -3.2399
    -2.8761  -2.5255  -2.3039  -2.2508  -1.9169  -1.8749  -1.7034  -1.5399
    -1.5392  -1.2142  -1.0600  -1.0565  -0.9166  -0.7044  -0.4831  -0.4828
    -0.3953  -0.3891  -0.2971  -0.2718  -0.1979  -0.1972  -0.0624  -0.0327
    -0.0245   0.0311   0.0636   0.0735   0.0775   0.0822   0.2505   0.2576
     0.2828   0.3485   0.3488   0.5308   0.5380   0.5692   0.5692   0.5918
     0.6052   0.6053   0.6273   0.6278   0.6721   0.6757   0.6772   0.6782
     0.6896   0.6900   0.7309   0.7309   0.7668   0.7668   0.7961   0.7963
     0.8010   0.8472   0.8483   0.8622   0.8622   0.8834   0.8839   0.8962
     0.8963   0.9271   0.9276   0.9717   1.0396   1.0396   1.0432   1.0693
     1.0693   1.0819   1.0830   1.1168   1.1172   1.1539   1.1561   1.1561
     1.2211   1.2212   1.2407   1.2454   1.2661   1.2665   1.3113   1.3121
     1.3269   1.3483   1.3512   1.3531   1.3801   1.4241   1.4253   1.4413
     1.4419   1.4510   1.4801   1.4872   1.5009   1.5222   1.5228   1.5318
     1.5605   1.5609   1.5886   1.6260   1.6435   1.6521   1.6522   1.6615
     1.6636   1.6659   1.6904   1.7021   1.7105   1.7211   1.7212   1.7375
     1.7386   1.7398   1.7598   1.7641   1.7665   1.7820   1.7854   1.7906
     1.7940   1.8039   1.8040   1.8127   1.8165   1.8316   1.8338   1.8378
     1.8382   1.8417   1.8574   1.8643   1.8674   1.8694   1.8824   1.8882
     1.8954   1.8996   1.9009   1.9259   1.9306   1.9376   1.9380   1.9551
     1.9583   1.9606   1.9747   1.9815   1.9817   1.9841   1.9945   2.0013
     2.0128   2.0251   2.0529   2.0530   2.0677   2.0681   2.0764   2.0773
     2.0808   2.0939   2.0969   2.1218   2.1228   2.1284   2.1357   2.1573
     2.1735   2.1800   2.2079   2.2153   2.2203   2.2207   2.2352   2.2356
     2.2817   2.2995   2.3248   2.3262   2.3327   2.3340   2.3468   2.3475
     2.3761   2.3780   2.3885   2.3892   2.3927   2.3952   2.4235   2.4243
     2.4563   2.4612   2.4655   2.4664   2.4740   2.4991   2.5023   2.5053
     2.5065   2.5102   2.5400   2.5515   2.5556   2.5606   2.5617   2.5783
     2.5830   2.5834   2.6010   2.6036   2.6047   2.6048   2.6150   2.6188
     2.6394   2.6483   2.6893   2.6946   2.6984   2.7257   2.7277   2.7370
     2.7397   2.7407   2.7413   2.7451   2.7627   2.7636   2.7645   2.7775
     2.7815   2.7818   2.7859   2.7975   2.8213   2.8324   2.8324   2.8354
     2.8457   2.8467   2.8647   2.8666   2.8735   2.8751   2.9209   2.9211
     2.9214   2.9263   2.9263   2.9344   2.9436   2.9449   2.9491   2.9536
     2.9556   2.9557   2.9617   2.9620   2.9661   2.9712   2.9793   2.9804
     2.9982   3.0098   3.0100   3.0108   3.0128   3.0172   3.0185   3.0189
     3.0411   3.0495   3.0603   3.0622   3.0648   3.0665   3.0797   3.0810
     3.1435   3.1710   3.2169   3.3010   3.3262   3.3266   3.4086   3.4866
     3.4868   3.7399   3.7886   3.7922   3.7969   3.8206   4.1035   4.3159
     4.4920   4.7635   4.7668   4.9893   5.0750   5.0874   5.1173   5.8542
     5.8546   6.0725   6.2006   6.2294   6.2506   6.2512   6.4872   6.7164
     6.7953   6.9054   6.9304   7.1864   7.2251   7.3671   7.4881   7.7513
     7.7839   7.7963   7.9676   8.0448   8.2434   8.2550   8.2827   8.4037
     8.4146   8.7202   8.7236   8.7538   8.8643   8.9536   9.2696   9.2729
     9.3171   9.4241   9.5715   9.6643   9.7888   9.8295   9.9166   9.9576
    10.0095  10.0194  10.0611  10.1412  10.2614  10.4168  10.4238  10.4531
    10.5291  10.5585  10.6135  10.6685  10.7256  10.7796  10.7869  10.8734
    10.9534  10.9577  10.9776  11.0201  11.0973  11.2486  11.4469  11.4605
    11.5026  11.5205  11.5876  11.6015  11.6985  11.7725  11.9354  11.9489
    12.0508  12.1741  12.2338  12.3160  12.3543  12.4190  12.4791  12.4977
    12.5436  12.5874  12.6553  12.7041  12.8258  12.8384  12.8664  12.8796
    12.9616  13.0306  13.1274  13.1442  13.1968  13.2423  13.2654  13.3821
    13.3954  13.4435

          k = 0.0000-0.5774 0.0000 ( 61408 PWs)   bands (ev):

  -107.8019-107.7992-107.7977-107.7961-107.7952-107.7941-107.7934-107.7929
  -107.7926-107.7922-107.7919-107.7918-107.7916-107.7910-107.7904-107.7901
  -107.7896-107.7890-107.7882-107.7864-107.7860-107.7841-107.7841-107.7835
  -107.7822-107.7820-107.7818-107.7797-107.7786-107.7767-107.7766-107.7750
  -107.7743-107.7742-107.7741-107.7723-107.5777-107.5758-107.5748-107.5739
  -107.5719-107.5716-107.5677-107.5655-107.5653-107.5400-107.5398-107.5373
  -107.5373-107.5350-107.5349-107.5347-107.5346-107.5345 -65.2512 -65.2502
   -65.2479 -65.2466 -65.2432 -65.2428 -65.2417 -65.2415 -65.2406 -65.2403
   -65.2398 -65.2396 -65.2394 -65.2386 -65.2354 -65.2297 -65.2288 -65.2287
   -65.2283 -65.2280 -65.2276 -65.2274 -65.2269 -65.2267 -65.2244 -65.2241
   -65.2236 -65.2230 -65.2171 -65.2165 -65.2159 -65.2155 -65.2150 -65.2144
   -65.2134 -65.2099 -65.2098 -65.2078 -65.2064 -65.2063 -65.2061 -65.2058
   -65.2054 -65.2043 -65.2033 -65.2032 -65.2027 -65.2018 -65.2018 -65.2012
   -65.1989 -65.1989 -65.1986 -65.1983 -65.1981 -65.1977 -65.1969 -65.1961
   -65.1939 -65.1931 -65.1928 -65.1923 -65.1921 -65.1917 -65.1915 -65.1915
   -65.1914 -65.1912 -65.1909 -65.1898 -65.1885 -65.1884 -65.1879 -65.1873
   -65.1872 -65.1868 -65.1853 -65.1848 -65.1843 -65.1841 -65.1840 -65.1835
   -65.1829 -65.1829 -65.1819 -65.1813 -65.1812 -65.1808 -65.1806 -65.1804
   -65.1803 -65.1796 -65.1795 -65.1770 -65.1768 -65.1766 -65.1764 -65.1756
   -65.1740 -65.1732 -65.1727 -65.1727 -65.1708 -65.1704 -65.1693 -65.1687
   -65.1622 -65.1614 -65.0440 -65.0376 -65.0371 -65.0346 -65.0336 -65.0173
   -65.0167 -65.0115 -65.0068 -65.0054 -65.0040 -65.0038 -65.0036 -65.0036
   -65.0034 -65.0031 -64.9983 -64.9963 -64.9954 -64.9926 -64.9904 -64.9856
   -64.9850 -64.9848 -64.9820 -64.9727 -64.9725 -64.9725 -64.9723 -64.9645
   -64.9642 -64.9640 -64.9614 -64.9613 -64.9565 -64.9543 -64.9538 -64.9524
   -64.9522 -64.9521 -64.9500 -64.9498 -64.9447 -64.9426 -64.9425 -64.9120
   -64.9118 -64.9095 -64.9095 -64.9073 -64.9073 -64.9071 -64.9069 -64.9068
   -12.7777 -10.0365 -10.0308  -6.4385  -6.4232  -4.4524  -3.2282  -3.2280
    -2.8483  -2.6331  -2.6317  -2.5293  -1.9713  -1.8826  -1.7368  -1.7155
    -1.6954  -1.6946  -1.1908  -1.1861  -0.8405  -0.6618  -0.5528  -0.4664
    -0.4424  -0.0825  -0.0146   0.0684   0.0968   0.1015   0.1211   0.1213
     0.1215   0.1227   0.1235   0.2085   0.2770   0.2856   0.2892   0.2967
     0.3005   0.3194   0.3195   0.3197   0.3199   0.3744   0.3747   0.3751
     0.3751   0.5027   0.5383   0.5384   0.5396   0.5397   0.5740   0.6193
     0.7175   0.7176   0.7178   0.7180   0.7290   0.7516   0.7556   0.7690
     0.7690   0.7705   0.7707   0.8911   0.8912   0.8917   0.8918   0.9135
     0.9148   0.9997   1.0109   1.0112   1.0129   1.0130   1.0517   1.0519
     1.0954   1.0956   1.1622   1.1626   1.1643   1.1646   1.2263   1.2266
     1.2568   1.2581   1.2731   1.2735   1.2757   1.2765   1.2962   1.2964
     1.3220   1.3327   1.3795   1.3958   1.3973   1.4235   1.4250   1.4380
     1.4440   1.4524   1.4528   1.4538   1.4538   1.5073   1.5118   1.5128
     1.5132   1.5143   1.5149   1.5624   1.5703   1.5809   1.5875   1.5898
     1.5901   1.5977   1.5979   1.5980   1.6211   1.6542   1.6807   1.6869
     1.6879   1.6915   1.7023   1.7361   1.7376   1.7381   1.7384   1.7388
     1.7434   1.7528   1.8021   1.8031   1.8054   1.8099   1.8208   1.8218
     1.8460   1.8529   1.8560   1.8569   1.8639   1.8806   1.8815   1.8845
     1.8849   1.8971   1.9011   1.9103   1.9110   1.9328   1.9419   1.9461
     1.9650   1.9712   1.9757   1.9764   2.0345   2.0356   2.0435   2.0443
     2.0462   2.0465   2.0511   2.0531   2.0552   2.0645   2.0650   2.0694
     2.0795   2.0890   2.0906   2.0966   2.0966   2.1030   2.1076   2.1696
     2.1768   2.1776   2.1885   2.2573   2.2580   2.2587   2.2594   2.2597
     2.2628   2.2628   2.2733   2.2739   2.2765   2.2907   2.3006   2.3200
     2.3356   2.3363   2.3368   2.3435   2.3583   2.3590   2.3591   2.3599
     2.3606   2.3686   2.3839   2.3848   2.3882   2.3955   2.3959   2.4763
     2.4937   2.5150   2.5157   2.5427   2.5429   2.5438   2.5446   2.5747
     2.5749   2.5804   2.5940   2.6132   2.6152   2.6190   2.6200   2.6313
     2.6409   2.6562   2.6566   2.6571   2.6573   2.6609   2.6702   2.6887
     2.6898   2.6921   2.6970   2.7449   2.7450   2.7467   2.7472   2.7580
     2.7588   2.7806   2.7819   2.8096   2.8106   2.8181   2.8202   2.8438
     2.8439   2.8666   2.8707   2.8774   2.8905   2.9287   2.9304   2.9458
     2.9483   2.9506   2.9519   2.9697   2.9811   2.9812   2.9843   2.9849
     2.9871   2.9893   3.0067   3.0098   3.0100   3.0102   3.0106   3.0271
     3.0279   3.0289   3.0416   3.0427   3.0583   3.0591   3.0745   3.0745
     3.0753   3.0789   3.0842   3.0997   3.1143   3.1269   3.1272   3.1286
     3.1288   3.2217   3.2506   3.7589   3.7869   3.7919   3.8034   4.2913
     4.3386   4.3388   4.3391   4.3393   4.6055   4.6071   4.6082   4.6087
     4.9438   4.9577   4.9872   5.0850   5.1360   5.1539   5.1644   5.1663
     5.1727   5.4490   5.7869   6.0419   6.0621   6.0982   6.1062   6.1430
     6.1468   6.1632   6.2054   6.5910   6.6735   7.0919   7.1905   7.4524
     7.4550   7.4576   7.6427   7.8976   7.9794   8.2029   8.3186   8.4264
     8.5775   8.5842   8.5846   8.6145   8.9076   8.9450   8.9595   9.1991
     9.2285   9.2320   9.2463   9.2538   9.4536   9.6145   9.6340   9.7751
     9.8203   9.8985   9.9027   9.9244   9.9323  10.2860  10.3019  10.3779
    10.4217  10.4417  10.5186  10.5316  10.5559  10.8091  10.8549  11.0234
    11.0554  11.1526  11.2624  11.2824  11.3598  11.3752  11.4644  11.4897
    11.5262  11.6052  11.7249  12.0339  12.1330  12.1371  12.2634  12.2907
    12.2994  12.3276  12.4267  12.5597  12.7391  12.7847  12.8954  12.9592
    12.9959  13.0401  13.0600  13.1320  13.1350  13.2217  13.2472  13.2594
    13.2856  13.3047  13.3063  13.3606  13.5319  13.6265  13.7081  13.7093
    13.7745  13.8565

          k = 0.2500-0.7217 0.0000 ( 61343 PWs)   bands (ev):

  -107.8019-107.7991-107.7976-107.7968-107.7942-107.7940-107.7938-107.7930
  -107.7928-107.7923-107.7919-107.7917-107.7914-107.7907-107.7906-107.7901
  -107.7896-107.7891-107.7878-107.7871-107.7854-107.7842-107.7841-107.7836
  -107.7823-107.7820-107.7818-107.7797-107.7782-107.7775-107.7758-107.7750
  -107.7746-107.7741-107.7740-107.7723-107.5778-107.5757-107.5751-107.5738
  -107.5719-107.5717-107.5677-107.5655-107.5653-107.5403-107.5389-107.5387
  -107.5360-107.5357-107.5349-107.5348-107.5345-107.5343 -65.2520 -65.2478
   -65.2467 -65.2462 -65.2455 -65.2449 -65.2443 -65.2430 -65.2415 -65.2398
   -65.2394 -65.2384 -65.2357 -65.2342 -65.2335 -65.2330 -65.2329 -65.2305
   -65.2286 -65.2270 -65.2268 -65.2266 -65.2262 -65.2250 -65.2245 -65.2238
   -65.2230 -65.2225 -65.2202 -65.2194 -65.2158 -65.2145 -65.2141 -65.2132
   -65.2110 -65.2106 -65.2101 -65.2096 -65.2092 -65.2069 -65.2060 -65.2058
   -65.2051 -65.2043 -65.2037 -65.2032 -65.2021 -65.2002 -65.1998 -65.1995
   -65.1993 -65.1991 -65.1988 -65.1979 -65.1974 -65.1970 -65.1962 -65.1958
   -65.1952 -65.1940 -65.1937 -65.1935 -65.1933 -65.1928 -65.1913 -65.1904
   -65.1901 -65.1898 -65.1894 -65.1893 -65.1885 -65.1883 -65.1879 -65.1876
   -65.1874 -65.1866 -65.1862 -65.1855 -65.1852 -65.1845 -65.1843 -65.1833
   -65.1825 -65.1823 -65.1822 -65.1820 -65.1817 -65.1815 -65.1814 -65.1811
   -65.1796 -65.1790 -65.1787 -65.1771 -65.1766 -65.1762 -65.1758 -65.1756
   -65.1750 -65.1748 -65.1728 -65.1718 -65.1716 -65.1708 -65.1672 -65.1653
   -65.1651 -65.1614 -65.0426 -65.0409 -65.0387 -65.0317 -65.0288 -65.0266
   -65.0093 -65.0093 -65.0091 -65.0079 -65.0064 -65.0057 -65.0044 -65.0015
   -64.9998 -64.9990 -64.9984 -64.9971 -64.9959 -64.9958 -64.9917 -64.9877
   -64.9863 -64.9824 -64.9763 -64.9743 -64.9734 -64.9734 -64.9678 -64.9676
   -64.9669 -64.9667 -64.9602 -64.9565 -64.9557 -64.9556 -64.9542 -64.9539
   -64.9521 -64.9516 -64.9500 -64.9498 -64.9447 -64.9426 -64.9425 -64.9123
   -64.9110 -64.9108 -64.9083 -64.9080 -64.9072 -64.9072 -64.9068 -64.9066
   -12.7777 -10.0351 -10.0322  -6.4346  -6.4271  -4.4526  -3.4336  -2.8480
    -2.8310  -2.6277  -2.6273  -2.5290  -2.0607  -2.0576  -1.9611  -1.9009
    -1.8958  -1.2178  -1.1970  -0.8923  -0.6568  -0.6164  -0.6136  -0.2675
    -0.2662  -0.2290  -0.2006  -0.0254  -0.0253  -0.0162   0.0094   0.0496
     0.1482   0.1497   0.1693   0.1696   0.1859   0.2355   0.2469   0.2471
     0.2648   0.3636   0.3664   0.3690   0.3694   0.4385   0.4467   0.5062
     0.5081   0.5192   0.5304   0.5589   0.5590   0.5612   0.5792   0.5808
     0.6429   0.6438   0.6740   0.6741   0.7044   0.7044   0.7316   0.7396
     0.7404   0.8043   0.8047   0.8339   0.8545   0.8683   0.8688   0.9396
     0.9439   0.9944   1.0139   1.0146   1.0399   1.0406   1.1000   1.1085
     1.1099   1.1257   1.1260   1.1369   1.1776   1.2037   1.2046   1.2478
     1.2486   1.2731   1.2761   1.2784   1.2806   1.2980   1.2982   1.3537
     1.3556   1.3592   1.3603   1.3650   1.3753   1.3942   1.3957   1.4060
     1.4082   1.4336   1.4365   1.4559   1.4582   1.4599   1.4784   1.5060
     1.5454   1.5504   1.5527   1.5543   1.5552   1.5827   1.5971   1.6039
     1.6065   1.6410   1.6439   1.6458   1.6479   1.6552   1.6779   1.6975
     1.6992   1.7125   1.7129   1.7208   1.7378   1.7516   1.7539   1.7565
     1.7584   1.7758   1.7791   1.7946   1.7952   1.8110   1.8174   1.8192
     1.8304   1.8424   1.8635   1.8664   1.8775   1.8810   1.8888   1.8940
     1.8972   1.9016   1.9113   1.9118   1.9199   1.9251   1.9258   1.9278
     1.9498   1.9561   1.9585   1.9756   1.9832   1.9949   2.0013   2.0039
     2.0159   2.0167   2.0182   2.0208   2.0224   2.0259   2.0271   2.0322
     2.0421   2.0606   2.0998   2.1040   2.1599   2.1600   2.1612   2.1670
     2.1714   2.1761   2.1942   2.1946   2.2182   2.2292   2.2310   2.2401
     2.2601   2.2611   2.2982   2.3005   2.3024   2.3313   2.3325   2.3338
     2.3342   2.3359   2.3377   2.3396   2.3438   2.3525   2.3708   2.3714
     2.4154   2.4190   2.4210   2.4221   2.4285   2.4338   2.4419   2.4649
     2.4700   2.4741   2.4875   2.5089   2.5104   2.5301   2.5374   2.5382
     2.5495   2.5533   2.5825   2.5902   2.5946   2.5985   2.6236   2.6256
     2.6462   2.6511   2.6515   2.6700   2.6729   2.6928   2.6953   2.6972
     2.6991   2.7039   2.7130   2.7141   2.7195   2.7265   2.7356   2.7535
     2.7859   2.7888   2.7899   2.7970   2.8406   2.8413   2.8538   2.8585
     2.8855   2.8971   2.8988   2.9050   2.9058   2.9154   2.9204   2.9490
     2.9510   2.9512   2.9594   2.9603   2.9695   2.9725   2.9741   2.9751
     2.9788   2.9828   2.9836   2.9849   2.9882   3.0013   3.0030   3.0160
     3.0171   3.0280   3.0281   3.0301   3.0402   3.0555   3.0608   3.0675
     3.0684   3.0851   3.1121   3.1129   3.1272   3.1476   3.1485   3.3068
     3.3172   3.4163   3.4165   3.5159   3.5170   3.6309   3.8394   3.8454
     4.2248   4.2479   4.3254   4.3264   4.3408   4.6010   4.7039   4.7202
     4.7322   4.7327   4.8826   5.1749   5.2029   5.2045   5.6526   5.6873
     5.7172   5.7981   5.9422   5.9538   5.9550   6.0873   6.1002   6.1754
     6.2558   6.6185   6.6903   6.6971   6.8647   6.9799   6.9965   7.0735
     7.0787   7.2104   7.2485   7.4027   7.6240   7.7579   7.9209   7.9653
     8.4613   8.5091   8.5105   8.6133   8.7437   8.9749   9.1461   9.1660
     9.2204   9.3208   9.3443   9.4815   9.5019   9.6372   9.6891   9.7239
     9.8056   9.9312  10.0142  10.1214  10.1753  10.3660  10.4260  10.4598
    10.5194  10.6201  10.7343  10.8347  10.8816  11.0526  11.0836  11.1908
    11.2287  11.2552  11.4652  11.5010  11.5120  11.5987  11.6159  11.7102
    11.7331  11.8338  11.8747  11.8916  11.9931  12.0972  12.1275  12.1733
    12.2896  12.3832  12.4385  12.4546  12.5312  12.5791  12.6080  12.6425
    12.7135  12.7638  12.8348  12.8554  12.9440  13.0262  13.1604  13.2061
    13.2984  13.3197  13.3809  13.4312  13.4890  13.5391  13.5591  13.6432
    13.6879  13.6967

          k =-0.2500 0.1443 0.0000 ( 61417 PWs)   bands (ev):

  -107.8023-107.7994-107.7967-107.7958-107.7951-107.7944-107.7937-107.7934
  -107.7928-107.7921-107.7920-107.7913-107.7912-107.7910-107.7907-107.7900
  -107.7899-107.7897-107.7871-107.7863-107.7858-107.7844-107.7844-107.7836
  -107.7821-107.7820-107.7818-107.7803-107.7777-107.7765-107.7764-107.7752
  -107.7750-107.7743-107.7737-107.7723-107.5781-107.5753-107.5748-107.5738
  -107.5719-107.5718-107.5676-107.5655-107.5654-107.5411-107.5382-107.5371
  -107.5371-107.5356-107.5356-107.5352-107.5341-107.5341 -65.2546 -65.2458
   -65.2449 -65.2438 -65.2429 -65.2426 -65.2419 -65.2415 -65.2389 -65.2388
   -65.2377 -65.2376 -65.2361 -65.2359 -65.2315 -65.2304 -65.2301 -65.2283
   -65.2274 -65.2266 -65.2262 -65.2260 -65.2258 -65.2254 -65.2237 -65.2237
   -65.2231 -65.2224 -65.2188 -65.2188 -65.2162 -65.2157 -65.2156 -65.2145
   -65.2143 -65.2136 -65.2131 -65.2127 -65.2108 -65.2107 -65.2085 -65.2085
   -65.2058 -65.2051 -65.2048 -65.2045 -65.2037 -65.2037 -65.2026 -65.2019
   -65.2012 -65.2004 -65.1997 -65.1990 -65.1987 -65.1981 -65.1975 -65.1971
   -65.1965 -65.1953 -65.1948 -65.1948 -65.1944 -65.1942 -65.1941 -65.1919
   -65.1915 -65.1898 -65.1897 -65.1889 -65.1887 -65.1877 -65.1873 -65.1871
   -65.1867 -65.1862 -65.1862 -65.1856 -65.1853 -65.1853 -65.1852 -65.1839
   -65.1837 -65.1823 -65.1820 -65.1811 -65.1806 -65.1803 -65.1800 -65.1798
   -65.1794 -65.1794 -65.1777 -65.1764 -65.1763 -65.1742 -65.1731 -65.1730
   -65.1730 -65.1719 -65.1715 -65.1694 -65.1693 -65.1686 -65.1661 -65.1654
   -65.1623 -65.1592 -65.0400 -65.0353 -65.0348 -65.0321 -65.0311 -65.0210
   -65.0205 -65.0152 -65.0148 -65.0110 -65.0073 -65.0018 -65.0016 -65.0006
   -65.0004 -64.9982 -64.9964 -64.9950 -64.9922 -64.9914 -64.9887 -64.9885
   -64.9881 -64.9834 -64.9829 -64.9828 -64.9804 -64.9800 -64.9645 -64.9644
   -64.9634 -64.9605 -64.9603 -64.9567 -64.9564 -64.9540 -64.9538 -64.9525
   -64.9520 -64.9500 -64.9499 -64.9493 -64.9447 -64.9426 -64.9425 -64.9131
   -64.9103 -64.9093 -64.9093 -64.9079 -64.9079 -64.9075 -64.9064 -64.9064
   -12.7785 -10.0328 -10.0302  -6.4357  -6.4274  -4.4797  -3.8536  -3.2399
    -2.8761  -2.5255  -2.3039  -2.2508  -1.9169  -1.8750  -1.7034  -1.5399
    -1.5392  -1.2142  -1.0600  -1.0565  -0.9166  -0.7044  -0.4831  -0.4828
    -0.3953  -0.3891  -0.2971  -0.2718  -0.1979  -0.1972  -0.0624  -0.0327
    -0.0245   0.0313   0.0635   0.0735   0.0775   0.0821   0.2505   0.2576
     0.2828   0.3485   0.3488   0.5308   0.5380   0.5692   0.5692   0.5918
     0.6052   0.6053   0.6273   0.6278   0.6721   0.6757   0.6772   0.6782
     0.6896   0.6900   0.7309   0.7309   0.7668   0.7668   0.7961   0.7963
     0.8010   0.8472   0.8483   0.8622   0.8622   0.8834   0.8839   0.8962
     0.8963   0.9271   0.9276   0.9717   1.0396   1.0396   1.0432   1.0693
     1.0693   1.0819   1.0830   1.1168   1.1172   1.1539   1.1561   1.1561
     1.2211   1.2212   1.2407   1.2454   1.2661   1.2665   1.3113   1.3121
     1.3269   1.3483   1.3512   1.3531   1.3801   1.4241   1.4253   1.4413
     1.4419   1.4510   1.4801   1.4872   1.5009   1.5222   1.5228   1.5318
     1.5605   1.5609   1.5886   1.6260   1.6435   1.6521   1.6522   1.6615
     1.6636   1.6659   1.6904   1.7021   1.7105   1.7211   1.7212   1.7375
     1.7386   1.7398   1.7598   1.7641   1.7666   1.7820   1.7854   1.7906
     1.7940   1.8039   1.8040   1.8127   1.8165   1.8316   1.8338   1.8378
     1.8382   1.8417   1.8574   1.8643   1.8674   1.8694   1.8824   1.8882
     1.8953   1.8996   1.9009   1.9260   1.9306   1.9376   1.9380   1.9551
     1.9583   1.9606   1.9747   1.9815   1.9817   1.9841   1.9945   2.0013
     2.0128   2.0251   2.0529   2.0530   2.0677   2.0681   2.0764   2.0773
     2.0808   2.0939   2.0969   2.1218   2.1228   2.1283   2.1357   2.1573
     2.1735   2.1800   2.2079   2.2153   2.2203   2.2207   2.2352   2.2356
     2.2817   2.2995   2.3248   2.3262   2.3327   2.3340   2.3468   2.3475
     2.3761   2.3780   2.3885   2.3892   2.3927   2.3952   2.4236   2.4243
     2.4563   2.4612   2.4655   2.4664   2.4740   2.4991   2.5023   2.5053
     2.5065   2.5102   2.5400   2.5514   2.5556   2.5606   2.5617   2.5783
     2.5830   2.5834   2.6010   2.6036   2.6047   2.6048   2.6150   2.6188
     2.6394   2.6483   2.6893   2.6946   2.6984   2.7257   2.7277   2.7370
     2.7397   2.7407   2.7413   2.7451   2.7627   2.7636   2.7645   2.7775
     2.7815   2.7818   2.7859   2.7975   2.8213   2.8324   2.8324   2.8354
     2.8457   2.8467   2.8647   2.8666   2.8735   2.8751   2.9209   2.9211
     2.9214   2.9263   2.9263   2.9344   2.9436   2.9449   2.9491   2.9536
     2.9556   2.9557   2.9617   2.9620   2.9661   2.9712   2.9793   2.9804
     2.9982   3.0098   3.0100   3.0108   3.0128   3.0172   3.0185   3.0189
     3.0411   3.0495   3.0603   3.0622   3.0648   3.0665   3.0797   3.0810
     3.1435   3.1710   3.2169   3.3010   3.3262   3.3266   3.4086   3.4866
     3.4868   3.7399   3.7886   3.7922   3.7969   3.8206   4.1035   4.3159
     4.4920   4.7635   4.7668   4.9893   5.0750   5.0874   5.1173   5.8542
     5.8546   6.0725   6.2006   6.2294   6.2506   6.2512   6.4872   6.7164
     6.7953   6.9054   6.9304   7.1863   7.2252   7.3671   7.4881   7.7513
     7.7839   7.7964   7.9676   8.0448   8.2434   8.2550   8.2827   8.4037
     8.4146   8.7202   8.7236   8.7538   8.8643   8.9535   9.2696   9.2729
     9.3171   9.4241   9.5716   9.6643   9.7888   9.8295   9.9166   9.9576
    10.0095  10.0194  10.0611  10.1412  10.2614  10.4168  10.4238  10.4531
    10.5291  10.5585  10.6135  10.6685  10.7257  10.7796  10.7869  10.8734
    10.9534  10.9577  10.9776  11.0201  11.0973  11.2486  11.4469  11.4605
    11.5025  11.5205  11.5876  11.6015  11.6985  11.7725  11.9354  11.9489
    12.0508  12.1741  12.2338  12.3160  12.3543  12.4190  12.4791  12.4977
    12.5436  12.5874  12.6553  12.7042  12.8258  12.8384  12.8664  12.8796
    12.9616  13.0306  13.1273  13.1442  13.1968  13.2423  13.2654  13.3821
    13.3953  13.4434

          k = 0.2500 0.1443 0.0000 ( 61417 PWs)   bands (ev):

  -107.8023-107.7994-107.7967-107.7958-107.7951-107.7944-107.7937-107.7934
  -107.7928-107.7921-107.7920-107.7913-107.7912-107.7910-107.7907-107.7900
  -107.7899-107.7897-107.7871-107.7863-107.7858-107.7844-107.7844-107.7836
  -107.7821-107.7820-107.7818-107.7803-107.7777-107.7765-107.7764-107.7752
  -107.7750-107.7743-107.7737-107.7723-107.5781-107.5753-107.5748-107.5738
  -107.5719-107.5718-107.5676-107.5655-107.5654-107.5411-107.5382-107.5371
  -107.5371-107.5356-107.5356-107.5352-107.5341-107.5341 -65.2546 -65.2458
   -65.2449 -65.2438 -65.2429 -65.2426 -65.2419 -65.2415 -65.2389 -65.2388
   -65.2377 -65.2376 -65.2361 -65.2359 -65.2315 -65.2304 -65.2301 -65.2283
   -65.2274 -65.2266 -65.2262 -65.2260 -65.2258 -65.2254 -65.2237 -65.2237
   -65.2231 -65.2224 -65.2188 -65.2188 -65.2162 -65.2157 -65.2156 -65.2145
   -65.2143 -65.2136 -65.2131 -65.2127 -65.2108 -65.2107 -65.2085 -65.2085
   -65.2058 -65.2051 -65.2048 -65.2045 -65.2037 -65.2037 -65.2026 -65.2019
   -65.2012 -65.2004 -65.1997 -65.1990 -65.1987 -65.1981 -65.1975 -65.1971
   -65.1965 -65.1953 -65.1948 -65.1948 -65.1944 -65.1942 -65.1941 -65.1919
   -65.1915 -65.1898 -65.1897 -65.1889 -65.1887 -65.1877 -65.1873 -65.1871
   -65.1867 -65.1862 -65.1862 -65.1856 -65.1853 -65.1853 -65.1852 -65.1839
   -65.1836 -65.1823 -65.1820 -65.1811 -65.1806 -65.1803 -65.1800 -65.1798
   -65.1794 -65.1794 -65.1777 -65.1764 -65.1763 -65.1742 -65.1731 -65.1730
   -65.1730 -65.1719 -65.1715 -65.1694 -65.1693 -65.1686 -65.1661 -65.1654
   -65.1623 -65.1592 -65.0400 -65.0353 -65.0348 -65.0321 -65.0311 -65.0210
   -65.0205 -65.0152 -65.0148 -65.0110 -65.0073 -65.0018 -65.0016 -65.0006
   -65.0004 -64.9982 -64.9964 -64.9950 -64.9922 -64.9914 -64.9887 -64.9885
   -64.9881 -64.9834 -64.9829 -64.9828 -64.9804 -64.9800 -64.9645 -64.9644
   -64.9634 -64.9605 -64.9603 -64.9567 -64.9564 -64.9540 -64.9538 -64.9525
   -64.9520 -64.9500 -64.9499 -64.9493 -64.9447 -64.9426 -64.9425 -64.9131
   -64.9103 -64.9093 -64.9093 -64.9079 -64.9079 -64.9075 -64.9064 -64.9064
   -12.7785 -10.0328 -10.0302  -6.4356  -6.4275  -4.4797  -3.8536  -3.2399
    -2.8761  -2.5255  -2.3039  -2.2508  -1.9169  -1.8749  -1.7034  -1.5399
    -1.5392  -1.2142  -1.0600  -1.0565  -0.9166  -0.7044  -0.4831  -0.4828
    -0.3953  -0.3891  -0.2971  -0.2718  -0.1979  -0.1972  -0.0624  -0.0327
    -0.0245   0.0312   0.0636   0.0735   0.0775   0.0821   0.2505   0.2576
     0.2828   0.3485   0.3488   0.5308   0.5380   0.5692   0.5692   0.5918
     0.6052   0.6053   0.6273   0.6278   0.6721   0.6757   0.6772   0.6782
     0.6896   0.6900   0.7309   0.7309   0.7668   0.7668   0.7961   0.7963
     0.8010   0.8472   0.8483   0.8622   0.8622   0.8834   0.8839   0.8962
     0.8963   0.9271   0.9276   0.9717   1.0396   1.0396   1.0432   1.0693
     1.0693   1.0819   1.0830   1.1168   1.1172   1.1539   1.1561   1.1561
     1.2211   1.2212   1.2407   1.2454   1.2661   1.2665   1.3113   1.3121
     1.3269   1.3483   1.3512   1.3531   1.3801   1.4241   1.4253   1.4413
     1.4419   1.4510   1.4801   1.4872   1.5009   1.5222   1.5228   1.5318
     1.5605   1.5609   1.5886   1.6260   1.6435   1.6521   1.6522   1.6615
     1.6636   1.6659   1.6904   1.7021   1.7105   1.7211   1.7212   1.7375
     1.7386   1.7398   1.7598   1.7641   1.7666   1.7820   1.7854   1.7906
     1.7940   1.8039   1.8040   1.8127   1.8165   1.8316   1.8338   1.8378
     1.8382   1.8417   1.8574   1.8643   1.8674   1.8694   1.8824   1.8882
     1.8953   1.8996   1.9009   1.9260   1.9306   1.9376   1.9380   1.9551
     1.9583   1.9606   1.9747   1.9815   1.9817   1.9841   1.9945   2.0013
     2.0128   2.0251   2.0529   2.0530   2.0677   2.0681   2.0764   2.0773
     2.0808   2.0939   2.0969   2.1218   2.1228   2.1283   2.1357   2.1573
     2.1735   2.1800   2.2079   2.2153   2.2203   2.2207   2.2352   2.2356
     2.2817   2.2995   2.3248   2.3262   2.3327   2.3340   2.3468   2.3475
     2.3761   2.3780   2.3885   2.3892   2.3927   2.3952   2.4236   2.4243
     2.4563   2.4612   2.4655   2.4664   2.4740   2.4991   2.5023   2.5053
     2.5065   2.5102   2.5400   2.5514   2.5556   2.5606   2.5617   2.5783
     2.5830   2.5834   2.6010   2.6036   2.6047   2.6048   2.6150   2.6188
     2.6394   2.6483   2.6893   2.6946   2.6984   2.7257   2.7277   2.7370
     2.7397   2.7407   2.7413   2.7451   2.7627   2.7636   2.7645   2.7775
     2.7815   2.7818   2.7859   2.7975   2.8213   2.8324   2.8324   2.8354
     2.8457   2.8467   2.8647   2.8666   2.8735   2.8751   2.9209   2.9211
     2.9214   2.9263   2.9263   2.9344   2.9436   2.9449   2.9491   2.9536
     2.9556   2.9557   2.9617   2.9620   2.9661   2.9712   2.9793   2.9804
     2.9982   3.0098   3.0100   3.0108   3.0128   3.0172   3.0185   3.0189
     3.0411   3.0495   3.0603   3.0622   3.0648   3.0665   3.0797   3.0810
     3.1435   3.1710   3.2169   3.3010   3.3262   3.3266   3.4086   3.4866
     3.4868   3.7399   3.7886   3.7922   3.7969   3.8206   4.1035   4.3159
     4.4920   4.7635   4.7668   4.9893   5.0750   5.0874   5.1173   5.8542
     5.8546   6.0725   6.2006   6.2294   6.2506   6.2512   6.4872   6.7164
     6.7953   6.9054   6.9304   7.1863   7.2252   7.3671   7.4881   7.7513
     7.7839   7.7964   7.9676   8.0448   8.2434   8.2550   8.2827   8.4037
     8.4146   8.7202   8.7236   8.7538   8.8643   8.9535   9.2696   9.2729
     9.3171   9.4241   9.5715   9.6643   9.7888   9.8295   9.9166   9.9576
    10.0095  10.0194  10.0611  10.1412  10.2614  10.4168  10.4238  10.4531
    10.5291  10.5585  10.6135  10.6685  10.7257  10.7796  10.7869  10.8734
    10.9534  10.9577  10.9776  11.0201  11.0973  11.2486  11.4469  11.4605
    11.5025  11.5205  11.5877  11.6015  11.6985  11.7725  11.9354  11.9488
    12.0508  12.1741  12.2338  12.3160  12.3543  12.4190  12.4791  12.4977
    12.5436  12.5874  12.6553  12.7042  12.8258  12.8384  12.8664  12.8796
    12.9616  13.0306  13.1274  13.1442  13.1968  13.2423  13.2654  13.3821
    13.3953  13.4434

          k = 0.5000-0.2887 0.0000 ( 61408 PWs)   bands (ev):

  -107.8019-107.7992-107.7977-107.7961-107.7952-107.7941-107.7934-107.7929
  -107.7926-107.7922-107.7919-107.7918-107.7916-107.7910-107.7904-107.7901
  -107.7896-107.7890-107.7882-107.7864-107.7860-107.7841-107.7841-107.7835
  -107.7822-107.7820-107.7818-107.7797-107.7786-107.7767-107.7766-107.7750
  -107.7743-107.7742-107.7741-107.7723-107.5777-107.5758-107.5748-107.5739
  -107.5719-107.5717-107.5677-107.5655-107.5653-107.5400-107.5398-107.5373
  -107.5373-107.5350-107.5349-107.5347-107.5346-107.5345 -65.2512 -65.2502
   -65.2479 -65.2466 -65.2432 -65.2428 -65.2417 -65.2415 -65.2406 -65.2403
   -65.2398 -65.2396 -65.2394 -65.2387 -65.2354 -65.2297 -65.2288 -65.2287
   -65.2283 -65.2280 -65.2276 -65.2274 -65.2269 -65.2267 -65.2244 -65.2241
   -65.2236 -65.2230 -65.2171 -65.2165 -65.2159 -65.2155 -65.2150 -65.2144
   -65.2134 -65.2099 -65.2098 -65.2078 -65.2064 -65.2063 -65.2062 -65.2058
   -65.2054 -65.2043 -65.2033 -65.2032 -65.2027 -65.2018 -65.2018 -65.2012
   -65.1989 -65.1989 -65.1986 -65.1983 -65.1981 -65.1977 -65.1969 -65.1961
   -65.1939 -65.1931 -65.1928 -65.1923 -65.1921 -65.1917 -65.1915 -65.1915
   -65.1914 -65.1912 -65.1909 -65.1898 -65.1885 -65.1884 -65.1879 -65.1873
   -65.1872 -65.1868 -65.1853 -65.1848 -65.1843 -65.1841 -65.1840 -65.1835
   -65.1829 -65.1829 -65.1819 -65.1813 -65.1812 -65.1808 -65.1806 -65.1804
   -65.1803 -65.1796 -65.1795 -65.1770 -65.1768 -65.1766 -65.1764 -65.1756
   -65.1740 -65.1732 -65.1727 -65.1727 -65.1708 -65.1704 -65.1693 -65.1687
   -65.1622 -65.1615 -65.0440 -65.0376 -65.0371 -65.0346 -65.0336 -65.0173
   -65.0167 -65.0115 -65.0068 -65.0054 -65.0040 -65.0038 -65.0036 -65.0036
   -65.0034 -65.0031 -64.9983 -64.9962 -64.9954 -64.9926 -64.9904 -64.9856
   -64.9850 -64.9848 -64.9820 -64.9727 -64.9725 -64.9725 -64.9723 -64.9645
   -64.9642 -64.9640 -64.9614 -64.9613 -64.9565 -64.9543 -64.9538 -64.9524
   -64.9522 -64.9521 -64.9500 -64.9498 -64.9447 -64.9426 -64.9425 -64.9120
   -64.9118 -64.9095 -64.9095 -64.9073 -64.9073 -64.9071 -64.9069 -64.9068
   -12.7777 -10.0363 -10.0310  -6.4389  -6.4228  -4.4524  -3.2282  -3.2280
    -2.8483  -2.6331  -2.6317  -2.5292  -1.9712  -1.8827  -1.7368  -1.7155
    -1.6954  -1.6946  -1.1908  -1.1861  -0.8405  -0.6618  -0.5528  -0.4664
    -0.4424  -0.0825  -0.0144   0.0682   0.0968   0.1015   0.1211   0.1213
     0.1215   0.1227   0.1235   0.2085   0.2770   0.2856   0.2893   0.2967
     0.3005   0.3194   0.3195   0.3197   0.3199   0.3744   0.3746   0.3751
     0.3751   0.5027   0.5383   0.5384   0.5396   0.5397   0.5740   0.6193
     0.7175   0.7176   0.7178   0.7180   0.7290   0.7516   0.7556   0.7689
     0.7690   0.7705   0.7707   0.8911   0.8912   0.8917   0.8918   0.9135
     0.9148   0.9997   1.0109   1.0112   1.0129   1.0130   1.0517   1.0519
     1.0954   1.0956   1.1622   1.1626   1.1643   1.1646   1.2263   1.2266
     1.2568   1.2581   1.2731   1.2735   1.2757   1.2765   1.2962   1.2964
     1.3220   1.3327   1.3795   1.3958   1.3973   1.4235   1.4250   1.4380
     1.4440   1.4524   1.4528   1.4538   1.4539   1.5073   1.5118   1.5128
     1.5132   1.5143   1.5149   1.5624   1.5703   1.5809   1.5875   1.5898
     1.5901   1.5977   1.5979   1.5980   1.6211   1.6542   1.6807   1.6869
     1.6879   1.6915   1.7023   1.7361   1.7376   1.7381   1.7384   1.7388
     1.7434   1.7528   1.8021   1.8031   1.8054   1.8099   1.8208   1.8218
     1.8460   1.8529   1.8560   1.8569   1.8639   1.8806   1.8815   1.8845
     1.8849   1.8971   1.9011   1.9103   1.9110   1.9329   1.9419   1.9461
     1.9650   1.9711   1.9757   1.9764   2.0345   2.0356   2.0435   2.0443
     2.0462   2.0465   2.0511   2.0531   2.0552   2.0645   2.0650   2.0694
     2.0795   2.0890   2.0906   2.0966   2.0966   2.1030   2.1075   2.1696
     2.1768   2.1776   2.1885   2.2573   2.2580   2.2587   2.2594   2.2597
     2.2628   2.2628   2.2733   2.2739   2.2765   2.2907   2.3006   2.3200
     2.3356   2.3363   2.3368   2.3435   2.3583   2.3590   2.3591   2.3599
     2.3606   2.3686   2.3839   2.3848   2.3882   2.3955   2.3959   2.4763
     2.4937   2.5150   2.5157   2.5427   2.5429   2.5438   2.5446   2.5747
     2.5749   2.5804   2.5940   2.6132   2.6152   2.6190   2.6200   2.6313
     2.6408   2.6562   2.6566   2.6571   2.6573   2.6609   2.6702   2.6887
     2.6898   2.6920   2.6970   2.7449   2.7450   2.7467   2.7472   2.7580
     2.7588   2.7806   2.7819   2.8096   2.8106   2.8181   2.8202   2.8438
     2.8439   2.8666   2.8707   2.8774   2.8905   2.9287   2.9304   2.9458
     2.9483   2.9506   2.9519   2.9697   2.9811   2.9812   2.9843   2.9849
     2.9871   2.9893   3.0067   3.0098   3.0100   3.0102   3.0106   3.0271
     3.0279   3.0289   3.0416   3.0427   3.0583   3.0591   3.0745   3.0745
     3.0753   3.0789   3.0842   3.0997   3.1143   3.1269   3.1272   3.1286
     3.1288   3.2217   3.2506   3.7589   3.7869   3.7919   3.8034   4.2913
     4.3386   4.3388   4.3391   4.3393   4.6055   4.6071   4.6082   4.6087
     4.9438   4.9577   4.9872   5.0850   5.1359   5.1539   5.1644   5.1663
     5.1727   5.4490   5.7869   6.0419   6.0621   6.0982   6.1062   6.1430
     6.1468   6.1632   6.2054   6.5910   6.6735   7.0921   7.1903   7.4524
     7.4550   7.4576   7.6427   7.8976   7.9793   8.2029   8.3186   8.4263
     8.5775   8.5842   8.5846   8.6145   8.9076   8.9449   8.9595   9.1991
     9.2285   9.2320   9.2463   9.2538   9.4537   9.6145   9.6341   9.7752
     9.8202   9.8984   9.9028   9.9244   9.9324  10.2860  10.3018  10.3779
    10.4217  10.4416  10.5186  10.5316  10.5559  10.8091  10.8548  11.0235
    11.0554  11.1526  11.2624  11.2824  11.3598  11.3752  11.4645  11.4897
    11.5262  11.6052  11.7249  12.0338  12.1330  12.1372  12.2633  12.2907
    12.2994  12.3276  12.4269  12.5596  12.7393  12.7846  12.8954  12.9591
    12.9959  13.0400  13.0600  13.1320  13.1350  13.2217  13.2472  13.2594
    13.2856  13.3047  13.3063  13.3606  13.5319  13.6265  13.7085  13.7092
    13.7745  13.8559

          k =-0.5000-0.2887 0.0000 ( 61408 PWs)   bands (ev):

  -107.8019-107.7992-107.7977-107.7961-107.7952-107.7941-107.7934-107.7929
  -107.7926-107.7922-107.7919-107.7918-107.7916-107.7910-107.7904-107.7901
  -107.7896-107.7890-107.7882-107.7864-107.7860-107.7841-107.7841-107.7835
  -107.7822-107.7820-107.7818-107.7797-107.7786-107.7767-107.7766-107.7750
  -107.7743-107.7742-107.7741-107.7723-107.5777-107.5758-107.5748-107.5739
  -107.5719-107.5717-107.5677-107.5655-107.5653-107.5400-107.5398-107.5373
  -107.5373-107.5350-107.5349-107.5347-107.5346-107.5345 -65.2512 -65.2502
   -65.2479 -65.2466 -65.2432 -65.2428 -65.2417 -65.2415 -65.2406 -65.2403
   -65.2398 -65.2396 -65.2394 -65.2386 -65.2354 -65.2297 -65.2288 -65.2287
   -65.2283 -65.2280 -65.2276 -65.2274 -65.2269 -65.2267 -65.2244 -65.2241
   -65.2236 -65.2230 -65.2171 -65.2165 -65.2159 -65.2155 -65.2150 -65.2144
   -65.2134 -65.2099 -65.2098 -65.2078 -65.2064 -65.2063 -65.2061 -65.2058
   -65.2054 -65.2043 -65.2033 -65.2032 -65.2027 -65.2018 -65.2018 -65.2012
   -65.1989 -65.1989 -65.1986 -65.1983 -65.1981 -65.1977 -65.1969 -65.1961
   -65.1939 -65.1931 -65.1928 -65.1923 -65.1921 -65.1917 -65.1915 -65.1915
   -65.1914 -65.1912 -65.1909 -65.1898 -65.1885 -65.1884 -65.1879 -65.1873
   -65.1872 -65.1868 -65.1853 -65.1848 -65.1843 -65.1841 -65.1840 -65.1835
   -65.1829 -65.1829 -65.1819 -65.1813 -65.1812 -65.1808 -65.1806 -65.1804
   -65.1803 -65.1796 -65.1795 -65.1770 -65.1768 -65.1766 -65.1764 -65.1756
   -65.1740 -65.1732 -65.1727 -65.1727 -65.1708 -65.1704 -65.1693 -65.1687
   -65.1622 -65.1615 -65.0440 -65.0376 -65.0371 -65.0346 -65.0336 -65.0173
   -65.0167 -65.0115 -65.0068 -65.0054 -65.0040 -65.0038 -65.0036 -65.0036
   -65.0034 -65.0031 -64.9983 -64.9962 -64.9954 -64.9926 -64.9904 -64.9856
   -64.9850 -64.9848 -64.9820 -64.9727 -64.9725 -64.9725 -64.9723 -64.9645
   -64.9642 -64.9640 -64.9614 -64.9613 -64.9565 -64.9543 -64.9538 -64.9524
   -64.9522 -64.9521 -64.9499 -64.9498 -64.9447 -64.9426 -64.9425 -64.9120
   -64.9118 -64.9095 -64.9095 -64.9073 -64.9073 -64.9071 -64.9069 -64.9068
   -12.7777 -10.0363 -10.0309  -6.4388  -6.4228  -4.4524  -3.2282  -3.2280
    -2.8483  -2.6331  -2.6317  -2.5292  -1.9713  -1.8826  -1.7368  -1.7155
    -1.6954  -1.6946  -1.1908  -1.1861  -0.8405  -0.6618  -0.5528  -0.4664
    -0.4424  -0.0825  -0.0145   0.0683   0.0968   0.1015   0.1211   0.1213
     0.1215   0.1227   0.1235   0.2085   0.2770   0.2856   0.2893   0.2967
     0.3005   0.3194   0.3195   0.3197   0.3199   0.3744   0.3747   0.3751
     0.3751   0.5027   0.5383   0.5384   0.5396   0.5397   0.5740   0.6193
     0.7175   0.7176   0.7178   0.7180   0.7290   0.7516   0.7556   0.7689
     0.7690   0.7705   0.7707   0.8911   0.8912   0.8917   0.8918   0.9135
     0.9148   0.9997   1.0109   1.0112   1.0129   1.0130   1.0517   1.0519
     1.0954   1.0956   1.1622   1.1626   1.1643   1.1646   1.2263   1.2266
     1.2568   1.2581   1.2731   1.2735   1.2757   1.2765   1.2962   1.2964
     1.3220   1.3327   1.3795   1.3958   1.3973   1.4235   1.4250   1.4380
     1.4440   1.4524   1.4528   1.4538   1.4539   1.5073   1.5118   1.5128
     1.5132   1.5143   1.5149   1.5624   1.5703   1.5809   1.5875   1.5898
     1.5901   1.5977   1.5979   1.5980   1.6211   1.6542   1.6807   1.6869
     1.6879   1.6915   1.7023   1.7361   1.7376   1.7381   1.7384   1.7388
     1.7434   1.7528   1.8021   1.8031   1.8054   1.8099   1.8208   1.8218
     1.8460   1.8529   1.8560   1.8569   1.8639   1.8806   1.8815   1.8845
     1.8849   1.8971   1.9011   1.9103   1.9110   1.9329   1.9419   1.9461
     1.9650   1.9712   1.9757   1.9764   2.0345   2.0356   2.0435   2.0443
     2.0462   2.0465   2.0511   2.0531   2.0552   2.0645   2.0650   2.0694
     2.0795   2.0890   2.0906   2.0966   2.0966   2.1030   2.1075   2.1696
     2.1768   2.1776   2.1885   2.2573   2.2580   2.2587   2.2594   2.2597
     2.2628   2.2628   2.2733   2.2739   2.2765   2.2907   2.3006   2.3200
     2.3356   2.3363   2.3368   2.3435   2.3583   2.3590   2.3591   2.3599
     2.3606   2.3686   2.3839   2.3848   2.3882   2.3955   2.3959   2.4763
     2.4937   2.5150   2.5157   2.5427   2.5429   2.5438   2.5446   2.5747
     2.5749   2.5804   2.5940   2.6132   2.6152   2.6190   2.6200   2.6313
     2.6408   2.6562   2.6566   2.6571   2.6573   2.6609   2.6702   2.6887
     2.6898   2.6920   2.6970   2.7449   2.7450   2.7467   2.7472   2.7580
     2.7588   2.7806   2.7819   2.8096   2.8106   2.8181   2.8202   2.8438
     2.8439   2.8666   2.8707   2.8774   2.8905   2.9287   2.9304   2.9458
     2.9483   2.9506   2.9519   2.9697   2.9811   2.9812   2.9843   2.9849
     2.9871   2.9893   3.0067   3.0098   3.0100   3.0102   3.0106   3.0271
     3.0279   3.0289   3.0416   3.0427   3.0583   3.0591   3.0745   3.0745
     3.0753   3.0789   3.0842   3.0997   3.1143   3.1269   3.1272   3.1286
     3.1288   3.2217   3.2506   3.7589   3.7869   3.7919   3.8034   4.2913
     4.3386   4.3388   4.3391   4.3393   4.6055   4.6071   4.6082   4.6087
     4.9438   4.9577   4.9872   5.0850   5.1359   5.1539   5.1644   5.1663
     5.1727   5.4490   5.7869   6.0419   6.0621   6.0982   6.1062   6.1430
     6.1468   6.1632   6.2054   6.5910   6.6735   7.0920   7.1904   7.4524
     7.4550   7.4576   7.6427   7.8976   7.9793   8.2029   8.3186   8.4264
     8.5775   8.5842   8.5846   8.6145   8.9076   8.9449   8.9595   9.1991
     9.2285   9.2320   9.2463   9.2538   9.4537   9.6145   9.6341   9.7752
     9.8202   9.8984   9.9028   9.9244   9.9324  10.2860  10.3019  10.3779
    10.4218  10.4416  10.5186  10.5316  10.5559  10.8091  10.8549  11.0235
    11.0554  11.1526  11.2624  11.2824  11.3598  11.3752  11.4645  11.4897
    11.5262  11.6052  11.7249  12.0338  12.1330  12.1371  12.2634  12.2907
    12.2994  12.3276  12.4269  12.5597  12.7393  12.7847  12.8954  12.9591
    12.9959  13.0400  13.0600  13.1320  13.1350  13.2217  13.2472  13.2594
    13.2856  13.3047  13.3063  13.3606  13.5319  13.6265  13.7081  13.7093
    13.7745  13.8565

          k =-0.2500-0.7217 0.0000 ( 61343 PWs)   bands (ev):

  -107.8019-107.7991-107.7976-107.7968-107.7942-107.7940-107.7938-107.7930
  -107.7928-107.7923-107.7919-107.7917-107.7914-107.7907-107.7906-107.7901
  -107.7896-107.7891-107.7878-107.7871-107.7854-107.7842-107.7841-107.7836
  -107.7822-107.7820-107.7818-107.7797-107.7782-107.7775-107.7758-107.7750
  -107.7746-107.7741-107.7740-107.7723-107.5778-107.5757-107.5751-107.5738
  -107.5719-107.5717-107.5677-107.5655-107.5653-107.5403-107.5389-107.5387
  -107.5360-107.5357-107.5349-107.5348-107.5345-107.5343 -65.2520 -65.2478
   -65.2467 -65.2462 -65.2455 -65.2449 -65.2443 -65.2430 -65.2415 -65.2398
   -65.2394 -65.2384 -65.2357 -65.2342 -65.2335 -65.2330 -65.2329 -65.2305
   -65.2286 -65.2270 -65.2268 -65.2266 -65.2262 -65.2250 -65.2245 -65.2238
   -65.2230 -65.2225 -65.2202 -65.2194 -65.2158 -65.2145 -65.2141 -65.2132
   -65.2110 -65.2106 -65.2101 -65.2096 -65.2092 -65.2069 -65.2060 -65.2058
   -65.2051 -65.2043 -65.2037 -65.2032 -65.2021 -65.2002 -65.1998 -65.1995
   -65.1993 -65.1991 -65.1988 -65.1979 -65.1974 -65.1970 -65.1962 -65.1958
   -65.1952 -65.1940 -65.1937 -65.1935 -65.1933 -65.1928 -65.1913 -65.1904
   -65.1901 -65.1898 -65.1894 -65.1893 -65.1885 -65.1883 -65.1879 -65.1876
   -65.1874 -65.1866 -65.1862 -65.1855 -65.1852 -65.1845 -65.1843 -65.1833
   -65.1825 -65.1823 -65.1822 -65.1820 -65.1817 -65.1815 -65.1814 -65.1811
   -65.1796 -65.1790 -65.1787 -65.1771 -65.1766 -65.1762 -65.1758 -65.1756
   -65.1750 -65.1748 -65.1728 -65.1718 -65.1716 -65.1708 -65.1672 -65.1653
   -65.1651 -65.1614 -65.0426 -65.0409 -65.0387 -65.0317 -65.0288 -65.0266
   -65.0093 -65.0093 -65.0091 -65.0079 -65.0064 -65.0057 -65.0044 -65.0015
   -64.9998 -64.9990 -64.9984 -64.9971 -64.9959 -64.9958 -64.9917 -64.9877
   -64.9863 -64.9824 -64.9763 -64.9743 -64.9734 -64.9734 -64.9678 -64.9676
   -64.9669 -64.9667 -64.9602 -64.9565 -64.9557 -64.9556 -64.9542 -64.9539
   -64.9521 -64.9516 -64.9500 -64.9498 -64.9447 -64.9426 -64.9425 -64.9123
   -64.9110 -64.9108 -64.9083 -64.9080 -64.9072 -64.9072 -64.9068 -64.9066
   -12.7777 -10.0351 -10.0322  -6.4347  -6.4270  -4.4526  -3.4336  -2.8480
    -2.8310  -2.6277  -2.6273  -2.5290  -2.0607  -2.0576  -1.9610  -1.9010
    -1.8958  -1.2178  -1.1970  -0.8923  -0.6568  -0.6164  -0.6136  -0.2675
    -0.2662  -0.2290  -0.2006  -0.0254  -0.0253  -0.0162   0.0095   0.0495
     0.1482   0.1497   0.1693   0.1696   0.1859   0.2355   0.2469   0.2471
     0.2648   0.3636   0.3664   0.3690   0.3694   0.4385   0.4467   0.5062
     0.5081   0.5192   0.5304   0.5589   0.5590   0.5612   0.5792   0.5808
     0.6429   0.6438   0.6740   0.6741   0.7044   0.7044   0.7316   0.7396
     0.7404   0.8043   0.8047   0.8339   0.8545   0.8683   0.8688   0.9396
     0.9439   0.9944   1.0139   1.0146   1.0399   1.0406   1.1000   1.1085
     1.1099   1.1257   1.1260   1.1369   1.1776   1.2037   1.2046   1.2478
     1.2486   1.2731   1.2761   1.2784   1.2806   1.2980   1.2982   1.3537
     1.3556   1.3592   1.3603   1.3650   1.3753   1.3942   1.3957   1.4060
     1.4082   1.4336   1.4365   1.4559   1.4582   1.4599   1.4784   1.5060
     1.5454   1.5504   1.5527   1.5543   1.5552   1.5827   1.5971   1.6039
     1.6065   1.6410   1.6439   1.6458   1.6479   1.6552   1.6779   1.6975
     1.6992   1.7125   1.7129   1.7208   1.7378   1.7516   1.7539   1.7565
     1.7584   1.7758   1.7791   1.7946   1.7952   1.8110   1.8174   1.8192
     1.8305   1.8424   1.8635   1.8664   1.8775   1.8810   1.8888   1.8940
     1.8972   1.9016   1.9113   1.9118   1.9199   1.9251   1.9258   1.9278
     1.9498   1.9561   1.9585   1.9756   1.9832   1.9949   2.0013   2.0039
     2.0159   2.0167   2.0182   2.0208   2.0224   2.0259   2.0271   2.0322
     2.0421   2.0605   2.0998   2.1040   2.1599   2.1600   2.1612   2.1670
     2.1714   2.1761   2.1942   2.1946   2.2182   2.2292   2.2310   2.2401
     2.2601   2.2611   2.2982   2.3005   2.3024   2.3313   2.3325   2.3338
     2.3342   2.3359   2.3377   2.3396   2.3438   2.3525   2.3708   2.3714
     2.4154   2.4190   2.4210   2.4221   2.4285   2.4338   2.4419   2.4649
     2.4701   2.4741   2.4875   2.5089   2.5104   2.5301   2.5374   2.5382
     2.5495   2.5533   2.5825   2.5902   2.5946   2.5985   2.6236   2.6256
     2.6462   2.6511   2.6515   2.6700   2.6729   2.6928   2.6953   2.6972
     2.6991   2.7039   2.7130   2.7141   2.7195   2.7265   2.7356   2.7535
     2.7859   2.7888   2.7899   2.7970   2.8406   2.8413   2.8538   2.8585
     2.8855   2.8971   2.8988   2.9050   2.9058   2.9154   2.9204   2.9490
     2.9510   2.9512   2.9594   2.9603   2.9695   2.9725   2.9741   2.9751
     2.9788   2.9828   2.9836   2.9849   2.9882   3.0013   3.0030   3.0160
     3.0171   3.0280   3.0281   3.0301   3.0402   3.0555   3.0608   3.0675
     3.0684   3.0851   3.1121   3.1129   3.1272   3.1476   3.1485   3.3068
     3.3172   3.4163   3.4165   3.5159   3.5170   3.6309   3.8394   3.8454
     4.2248   4.2479   4.3254   4.3264   4.3408   4.6010   4.7039   4.7202
     4.7322   4.7327   4.8826   5.1749   5.2029   5.2045   5.6526   5.6873
     5.7172   5.7981   5.9422   5.9538   5.9550   6.0873   6.1002   6.1754
     6.2558   6.6185   6.6903   6.6971   6.8647   6.9799   6.9965   7.0735
     7.0787   7.2104   7.2485   7.4027   7.6240   7.7579   7.9209   7.9653
     8.4613   8.5091   8.5105   8.6133   8.7437   8.9749   9.1461   9.1660
     9.2204   9.3208   9.3443   9.4815   9.5019   9.6372   9.6891   9.7239
     9.8056   9.9312  10.0142  10.1214  10.1753  10.3660  10.4260  10.4598
    10.5194  10.6201  10.7343  10.8347  10.8816  11.0526  11.0836  11.1908
    11.2287  11.2552  11.4652  11.5010  11.5120  11.5987  11.6159  11.7102
    11.7331  11.8338  11.8747  11.8916  11.9931  12.0972  12.1275  12.1733
    12.2896  12.3832  12.4385  12.4546  12.5312  12.5791  12.6080  12.6424
    12.7135  12.7638  12.8347  12.8554  12.9440  13.0262  13.1604  13.2062
    13.2984  13.3196  13.3808  13.4312  13.4891  13.5391  13.5591  13.6432
    13.6879  13.6967

          k =-0.5000-0.5774 0.0000 ( 61343 PWs)   bands (ev):

  -107.8019-107.7991-107.7976-107.7968-107.7942-107.7940-107.7938-107.7930
  -107.7928-107.7923-107.7919-107.7917-107.7914-107.7907-107.7906-107.7901
  -107.7896-107.7891-107.7878-107.7871-107.7854-107.7842-107.7841-107.7836
  -107.7823-107.7820-107.7818-107.7797-107.7782-107.7775-107.7758-107.7750
  -107.7746-107.7741-107.7740-107.7723-107.5777-107.5757-107.5751-107.5738
  -107.5719-107.5717-107.5677-107.5655-107.5653-107.5403-107.5389-107.5387
  -107.5360-107.5357-107.5349-107.5348-107.5345-107.5343 -65.2520 -65.2478
   -65.2467 -65.2462 -65.2455 -65.2449 -65.2443 -65.2430 -65.2415 -65.2397
   -65.2394 -65.2384 -65.2357 -65.2342 -65.2335 -65.2330 -65.2329 -65.2305
   -65.2286 -65.2270 -65.2268 -65.2266 -65.2262 -65.2250 -65.2245 -65.2238
   -65.2230 -65.2225 -65.2202 -65.2194 -65.2158 -65.2145 -65.2141 -65.2132
   -65.2110 -65.2106 -65.2101 -65.2096 -65.2092 -65.2069 -65.2060 -65.2058
   -65.2051 -65.2043 -65.2037 -65.2032 -65.2021 -65.2002 -65.1998 -65.1995
   -65.1993 -65.1991 -65.1988 -65.1979 -65.1974 -65.1970 -65.1962 -65.1958
   -65.1952 -65.1940 -65.1937 -65.1935 -65.1933 -65.1928 -65.1913 -65.1904
   -65.1901 -65.1898 -65.1894 -65.1893 -65.1885 -65.1883 -65.1879 -65.1876
   -65.1874 -65.1866 -65.1862 -65.1855 -65.1852 -65.1845 -65.1843 -65.1833
   -65.1825 -65.1823 -65.1822 -65.1820 -65.1817 -65.1815 -65.1814 -65.1811
   -65.1796 -65.1790 -65.1787 -65.1771 -65.1766 -65.1762 -65.1758 -65.1756
   -65.1750 -65.1748 -65.1728 -65.1718 -65.1716 -65.1708 -65.1672 -65.1653
   -65.1651 -65.1614 -65.0426 -65.0409 -65.0387 -65.0317 -65.0288 -65.0266
   -65.0093 -65.0093 -65.0091 -65.0079 -65.0064 -65.0057 -65.0044 -65.0016
   -64.9998 -64.9990 -64.9984 -64.9971 -64.9959 -64.9958 -64.9917 -64.9877
   -64.9863 -64.9824 -64.9763 -64.9743 -64.9734 -64.9734 -64.9678 -64.9676
   -64.9669 -64.9667 -64.9602 -64.9565 -64.9557 -64.9556 -64.9542 -64.9540
   -64.9521 -64.9516 -64.9499 -64.9498 -64.9447 -64.9426 -64.9425 -64.9123
   -64.9110 -64.9108 -64.9083 -64.9080 -64.9072 -64.9072 -64.9068 -64.9066
   -12.7777 -10.0349 -10.0324  -6.4350  -6.4266  -4.4526  -3.4336  -2.8480
    -2.8310  -2.6277  -2.6274  -2.5290  -2.0607  -2.0576  -1.9610  -1.9010
    -1.8958  -1.2178  -1.1970  -0.8923  -0.6568  -0.6164  -0.6136  -0.2675
    -0.2662  -0.2290  -0.2006  -0.0254  -0.0253  -0.0162   0.0096   0.0494
     0.1482   0.1496   0.1693   0.1696   0.1859   0.2355   0.2469   0.2471
     0.2648   0.3636   0.3664   0.3690   0.3694   0.4385   0.4467   0.5062
     0.5081   0.5192   0.5304   0.5589   0.5590   0.5612   0.5792   0.5808
     0.6429   0.6438   0.6740   0.6741   0.7044   0.7044   0.7316   0.7396
     0.7404   0.8043   0.8047   0.8339   0.8545   0.8683   0.8688   0.9396
     0.9439   0.9944   1.0139   1.0146   1.0399   1.0406   1.1000   1.1085
     1.1099   1.1257   1.1260   1.1369   1.1776   1.2037   1.2046   1.2478
     1.2486   1.2731   1.2761   1.2784   1.2806   1.2980   1.2982   1.3537
     1.3556   1.3592   1.3603   1.3650   1.3753   1.3942   1.3957   1.4060
     1.4082   1.4336   1.4365   1.4559   1.4582   1.4599   1.4784   1.5060
     1.5454   1.5504   1.5527   1.5543   1.5552   1.5827   1.5971   1.6039
     1.6065   1.6410   1.6439   1.6458   1.6479   1.6552   1.6779   1.6974
     1.6992   1.7125   1.7129   1.7208   1.7378   1.7516   1.7539   1.7565
     1.7584   1.7758   1.7791   1.7946   1.7952   1.8110   1.8174   1.8192
     1.8305   1.8424   1.8635   1.8664   1.8775   1.8810   1.8888   1.8940
     1.8972   1.9016   1.9113   1.9118   1.9199   1.9251   1.9258   1.9278
     1.9498   1.9561   1.9585   1.9756   1.9832   1.9949   2.0013   2.0039
     2.0159   2.0167   2.0182   2.0208   2.0224   2.0259   2.0271   2.0322
     2.0421   2.0605   2.0998   2.1040   2.1599   2.1600   2.1612   2.1670
     2.1714   2.1761   2.1942   2.1946   2.2182   2.2292   2.2310   2.2401
     2.2601   2.2611   2.2982   2.3005   2.3024   2.3313   2.3325   2.3338
     2.3342   2.3359   2.3377   2.3396   2.3438   2.3525   2.3708   2.3714
     2.4154   2.4190   2.4210   2.4221   2.4285   2.4338   2.4419   2.4649
     2.4701   2.4741   2.4875   2.5089   2.5104   2.5301   2.5374   2.5382
     2.5495   2.5533   2.5825   2.5902   2.5946   2.5985   2.6236   2.6256
     2.6462   2.6511   2.6515   2.6700   2.6729   2.6928   2.6953   2.6972
     2.6991   2.7039   2.7130   2.7141   2.7195   2.7265   2.7356   2.7535
     2.7859   2.7888   2.7899   2.7970   2.8406   2.8413   2.8538   2.8585
     2.8855   2.8971   2.8988   2.9050   2.9058   2.9154   2.9204   2.9490
     2.9510   2.9512   2.9594   2.9603   2.9695   2.9725   2.9741   2.9751
     2.9788   2.9828   2.9836   2.9849   2.9882   3.0013   3.0030   3.0160
     3.0171   3.0280   3.0281   3.0301   3.0402   3.0555   3.0608   3.0675
     3.0684   3.0851   3.1121   3.1129   3.1272   3.1476   3.1485   3.3067
     3.3172   3.4163   3.4165   3.5159   3.5170   3.6309   3.8394   3.8454
     4.2248   4.2480   4.3254   4.3264   4.3408   4.6010   4.7039   4.7202
     4.7322   4.7327   4.8826   5.1749   5.2029   5.2045   5.6526   5.6873
     5.7172   5.7981   5.9422   5.9538   5.9550   6.0873   6.1002   6.1754
     6.2558   6.6185   6.6903   6.6972   6.8647   6.9799   6.9965   7.0734
     7.0787   7.2104   7.2484   7.4027   7.6240   7.7579   7.9209   7.9653
     8.4613   8.5091   8.5105   8.6133   8.7437   8.9750   9.1461   9.1660
     9.2204   9.3208   9.3442   9.4815   9.5019   9.6372   9.6891   9.7239
     9.8056   9.9312  10.0142  10.1214  10.1753  10.3660  10.4260  10.4598
    10.5194  10.6201  10.7343  10.8347  10.8816  11.0526  11.0836  11.1909
    11.2287  11.2552  11.4653  11.5010  11.5120  11.5988  11.6159  11.7102
    11.7331  11.8339  11.8748  11.8916  11.9931  12.0972  12.1275  12.1734
    12.2897  12.3832  12.4385  12.4546  12.5312  12.5791  12.6080  12.6425
    12.7135  12.7638  12.8347  12.8553  12.9440  13.0262  13.1604  13.2060
    13.2984  13.3197  13.3808  13.4312  13.4891  13.5392  13.5591  13.6432
    13.6879  13.6967

     the Fermi energy is     4.6458 ev

!    total energy              =  -21903.76637180 Ry
     Harris-Foulkes estimate   =  -21903.76637186 Ry
     estimated scf accuracy    <          9.2E-09 Ry

     The total energy is the sum of the following terms:

     one-electron contribution = -207699.60500160 Ry
     hartree contribution      =  104053.66973174 Ry
     xc contribution           =   -2143.21368789 Ry
     ewald contribution        =   83885.43529323 Ry
     smearing contrib. (-TS)   =      -0.05270728 Ry

     convergence has been achieved in  36 iterations
 
     init_run     :     95.49s CPU     98.22s WALL (       1 calls)
     electrons    :  16849.18s CPU  17134.04s WALL (       1 calls)

     Called by init_run:
     wfcinit      :     83.53s CPU     85.38s WALL (       1 calls)
     potinit      :      7.61s CPU      7.90s WALL (       1 calls)
     hinit0       :      1.74s CPU      1.77s WALL (       1 calls)

     Called by electrons:
     c_bands      :  15747.11s CPU  15974.94s WALL (      36 calls)
     sum_band     :    803.39s CPU    836.50s WALL (      36 calls)
     v_of_rho     :    241.84s CPU    249.58s WALL (      37 calls)
     newd         :     53.53s CPU     70.17s WALL (      37 calls)
     mix_rho      :      7.59s CPU      7.75s WALL (      36 calls)

     Called by c_bands:
     init_us_2    :     14.26s CPU     14.78s WALL (     730 calls)
     cegterg      :  15603.65s CPU  15826.48s WALL (     360 calls)

     Called by sum_band:
     sum_band:bec :      2.83s CPU      2.83s WALL (     360 calls)
     addusdens    :     32.01s CPU     51.74s WALL (      36 calls)

     Called by *egterg:
     h_psi        :   4151.35s CPU   4228.61s WALL (    1995 calls)
     s_psi        :    363.63s CPU    364.06s WALL (    1995 calls)
     g_psi        :      5.78s CPU      5.80s WALL (    1625 calls)
     cdiaghg      :   8835.24s CPU   8896.56s WALL (    1985 calls)

     Called by h_psi:
     h_psi:pot    :   4142.34s CPU   4203.33s WALL (    1995 calls)
     h_psi:calbec :    433.81s CPU    437.90s WALL (    1995 calls)
     vloc_psi     :   3343.67s CPU   3399.56s WALL (    1995 calls)
     add_vuspsi   :    364.83s CPU    365.85s WALL (    1995 calls)

     General routines
     calbec       :    582.08s CPU    586.54s WALL (    2355 calls)
     fft          :    226.44s CPU    228.03s WALL (    2330 calls)
     ffts         :      4.42s CPU      4.44s WALL (      73 calls)
     fftw         :   3718.80s CPU   3781.49s WALL ( 1452718 calls)
     interpolate  :      3.55s CPU      3.58s WALL (      37 calls)
 
     Parallel routines
     fft_scatt_xy :    213.12s CPU    215.41s WALL ( 1455121 calls)
     fft_scatt_yz :   2898.73s CPU   2948.85s WALL ( 1455121 calls)
 
     PWSCF        :     4h42m CPU       42h 4m WALL

      47h
 
   This run was terminated on:  10:34:20  21Nov2019            

=------------------------------------------------------------------------------=
   JOB DONE.
=------------------------------------------------------------------------------=
