
     Program PWSCF v.6.3MaX starts on 22Nov2019 at 22:25:27 

     This program is part of the open-source Quantum ESPRESSO suite
     for quantum simulation of materials; please cite
         "P. Giannozzi et al., J. Phys.:Condens. Matter 21 395502 (2009);
         "P. Giannozzi et al., J. Phys.:Condens. Matter 29 465901 (2017);
          URL http://www.quantum-espresso.org", 
     in publications or presentations arising from this work. More details at
     http://www.quantum-espresso.org/quote

     Parallel version (MPI), running on    16 processors

     MPI processes distributed on     2 nodes
     R & G space division:  proc/nbgrp/npool/nimage =      16
     Waiting for input...
     Reading input from standard input

     Current dimensions of program PWSCF are:
     Max number of different atomic species (ntypx) = 10
     Max number of k-points (npk) =  40000
     Max angular momentum in pseudopotentials (lmaxx) =  3
     Message from routine iosys:
     minimal I/O required, wf_collect reset to FALSE

     IMPORTANT: XC functional enforced from input :
     Exchange-correlation      = VDW-DF ( 1  4  4  0 1 0)
     Any further DFT definition will be discarded
     Please, verify this is what you really want


     Subspace diagonalization in iterative solution of the eigenvalue problem:
     one sub-group per band group will be used
     scalapack distributed-memory algorithm (size of sub-group:  2*  2 procs)

 
     Parallelization info
     --------------------
     sticks:   dense  smooth     PW     G-vecs:    dense   smooth      PW
     Min         565     189     51               159513    30701    4383
     Max         566     190     52               159526    30710    4400
     Sum        9055    3037    823              2552337   491295   70261
 


     bravais-lattice index     =            0
     lattice parameter (alat)  =      14.8058  a.u.
     unit-cell volume          =   10282.4791 (a.u.)^3
     number of atoms/cell      =           66
     number of atomic types    =            3
     number of electrons       =      1056.00
     number of Kohn-Sham states=          634
     kinetic-energy cutoff     =      50.0000  Ry
     charge density cutoff     =     600.0000  Ry
     convergence threshold     =      1.0E-08
     mixing beta               =       0.3000
     number of iterations used =            8  plain     mixing
     Exchange-correlation      = VDW-DF ( 1  4  4  0 1 0)

     celldm(1)=  14.805786  celldm(2)=   0.000000  celldm(3)=   0.000000
     celldm(4)=   0.000000  celldm(5)=   0.000000  celldm(6)=   0.000000

     crystal axes: (cart. coord. in units of alat)
               a(1) = (   1.000000   0.000000   0.000000 )  
               a(2) = (   0.500000   0.866025   0.000000 )  
               a(3) = (   0.000000   0.000000   3.658245 )  

     reciprocal axes: (cart. coord. in units 2 pi/alat)
               b(1) = (  1.000000 -0.577350  0.000000 )  
               b(2) = (  0.000000  1.154701  0.000000 )  
               b(3) = (  0.000000  0.000000  0.273355 )  


     PseudoPot. # 1 for Cu read from file:
     /deac/thonhauserGrp/chakrad/calculations/atomandmolecule-qe6.2.1-i2012-C6modif/all_pbe_UPF_v1.5/cu_pbe_v1.2.uspp.F.UPF
     MD5 check sum: 6e991ff952a84172a2a52a1c1e996048
     Pseudo is Ultrasoft + core correction, Zval = 19.0
     Generated by new atomic code, or converted to UPF format
     Using radial grid of  867 points,  6 beta functions with: 
                l(1) =   0
                l(2) =   0
                l(3) =   1
                l(4) =   1
                l(5) =   2
                l(6) =   2
     Q(r) pseudized with  8 coefficients,  rinner =    1.150   1.150   1.150
                                                       1.150   1.150

     PseudoPot. # 2 for C  read from file:
     /deac/thonhauserGrp/chakrad/calculations/atomandmolecule-qe6.2.1-i2012-C6modif/all_pbe_UPF_v1.5/c_pbe_v1.2.uspp.F.UPF
     MD5 check sum: d1aef80898a10debaa0f26306b886e00
     Pseudo is Ultrasoft + core correction, Zval =  4.0
     Generated by new atomic code, or converted to UPF format
     Using radial grid of  721 points,  4 beta functions with: 
                l(1) =   0
                l(2) =   0
                l(3) =   1
                l(4) =   1
     Q(r) pseudized with  8 coefficients,  rinner =    1.100   1.100   1.100


     PseudoPot. # 3 for H  read from file:
     /deac/thonhauserGrp/chakrad/calculations/atomandmolecule-qe6.2.1-i2012-C6modif/all_pbe_UPF_v1.5/h_pbe_v1.4.uspp.F.UPF
     MD5 check sum: 761ae9a214b05c3daf00ab9f6b793d6f
     Pseudo is Ultrasoft, Zval =  1.0
     Generated by new atomic code, or converted to UPF format
     Using radial grid of  615 points,  2 beta functions with: 
                l(1) =   0
                l(2) =   0
     Q(r) pseudized with  8 coefficients,  rinner =    0.700

     vdW kernel table read from file vdW_kernel_table
     MD5 check sum: cc9485f6209b1096fbef62427c856dab

     atomic species   valence    mass     pseudopotential
        Cu            19.00     1.00000     Cu( 1.00)
        C              4.00     1.00000     C ( 1.00)
        H              1.00     1.00000     H ( 1.00)

     No symmetry found



   Cartesian axes

     site n.     atom                  positions (alat units)
         1           Cu  tau(   1) = (   0.1666667   0.0962250   0.2552686  )
         2           Cu  tau(   2) = (   0.5000000   0.0962250   0.2552686  )
         3           Cu  tau(   3) = (   0.8333333   0.0962250   0.2552686  )
         4           Cu  tau(   4) = (   0.3333333   0.3849002   0.2552686  )
         5           Cu  tau(   5) = (   0.6666667   0.3849002   0.2552686  )
         6           Cu  tau(   6) = (   1.0000000   0.3849002   0.2552686  )
         7           Cu  tau(   7) = (   0.5000000   0.6735753   0.2552686  )
         8           Cu  tau(   8) = (   0.8333333   0.6735753   0.2552686  )
         9           Cu  tau(   9) = (   1.1666667   0.6735753   0.2552686  )
        10           Cu  tau(  10) = (   0.0000000   0.1924501   0.5274341  )
        11           Cu  tau(  11) = (   0.3333333   0.1924501   0.5274341  )
        12           Cu  tau(  12) = (   0.6666667   0.1924501   0.5274341  )
        13           Cu  tau(  13) = (   0.1666667   0.4811252   0.5274341  )
        14           Cu  tau(  14) = (   0.5000000   0.4811252   0.5274341  )
        15           Cu  tau(  15) = (   0.8333333   0.4811252   0.5274341  )
        16           Cu  tau(  16) = (   0.3333333   0.7698004   0.5274341  )
        17           Cu  tau(  17) = (   0.6666667   0.7698004   0.5274341  )
        18           Cu  tau(  18) = (   1.0000000   0.7698004   0.5274341  )
        19           Cu  tau(  19) = (   0.0000000   0.0000000   0.7995997  )
        20           Cu  tau(  20) = (   0.3333333   0.0000000   0.7995997  )
        21           Cu  tau(  21) = (   0.6666667   0.0000000   0.7995997  )
        22           Cu  tau(  22) = (   0.1666667   0.2886751   0.7995997  )
        23           Cu  tau(  23) = (   0.5000000   0.2886751   0.7995997  )
        24           Cu  tau(  24) = (   0.8333333   0.2886751   0.7995997  )
        25           Cu  tau(  25) = (   0.3333333   0.5773503   0.7995997  )
        26           Cu  tau(  26) = (   0.6666667   0.5773503   0.7995997  )
        27           Cu  tau(  27) = (   1.0000000   0.5773503   0.7995997  )
        28           Cu  tau(  28) = (   0.1666659   0.0962246   1.0691130  )
        29           Cu  tau(  29) = (   0.5000000   0.0962241   1.0691104  )
        30           Cu  tau(  30) = (   0.8333341   0.0962246   1.0691130  )
        31           Cu  tau(  31) = (   0.3333325   0.3849006   1.0691104  )
        32           Cu  tau(  32) = (   0.6666675   0.3849006   1.0691104  )
        33           Cu  tau(  33) = (   1.0000000   0.3849003   1.0691143  )
        34           Cu  tau(  34) = (   0.5000000   0.6735762   1.0691130  )
        35           Cu  tau(  35) = (   0.8333334   0.6735753   1.0691143  )
        36           Cu  tau(  36) = (   1.1666666   0.6735753   1.0691143  )
        37           Cu  tau(  37) = (   0.0000000   0.1924486   1.3387540  )
        38           Cu  tau(  38) = (   0.3333330   0.1924499   1.3387465  )
        39           Cu  tau(  39) = (   0.6666670   0.1924499   1.3387465  )
        40           Cu  tau(  40) = (   0.1666676   0.4811247   1.3387504  )
        41           Cu  tau(  41) = (   0.5000000   0.4811256   1.3387465  )
        42           Cu  tau(  42) = (   0.8333324   0.4811247   1.3387504  )
        43           Cu  tau(  43) = (   0.3333346   0.7698011   1.3387540  )
        44           Cu  tau(  44) = (   0.6666654   0.7698011   1.3387540  )
        45           Cu  tau(  45) = (   1.0000000   0.7698014   1.3387504  )
        46           Cu  tau(  46) = (   0.0000000   0.0000000   1.6083750  )
        47           Cu  tau(  47) = (   0.3333333   0.0000005   1.6083624  )
        48           Cu  tau(  48) = (   0.6666667   0.0000005   1.6083624  )
        49           Cu  tau(  49) = (   0.1666671   0.2886748   1.6083624  )
        50           Cu  tau(  50) = (   0.5000000   0.2886751   1.6083553  )
        51           Cu  tau(  51) = (   0.8333329   0.2886748   1.6083624  )
        52           Cu  tau(  52) = (   0.3333338   0.5773500   1.6083624  )
        53           Cu  tau(  53) = (   0.6666662   0.5773500   1.6083624  )
        54           Cu  tau(  54) = (   1.0000000   0.5773503   1.6083570  )
        55           C   tau(  55) = (   0.6567407   0.3959883   1.9784574  )
        56           C   tau(  56) = (   0.5046394   0.3028152   1.9784573  )
        57           C   tau(  57) = (   0.3478975   0.3879497   1.9784574  )
        58           C   tau(  58) = (   0.3432593   0.5662630   1.9784574  )
        59           C   tau(  59) = (   0.4953606   0.6594361   1.9784573  )
        60           C   tau(  60) = (   0.6521025   0.5743016   1.9784574  )
        61           H   tau(  61) = (   0.7789959   0.3295665   1.9785356  )
        62           H   tau(  62) = (   0.5082587   0.1637263   1.9785357  )
        63           H   tau(  63) = (   0.2292624   0.3152577   1.9785356  )
        64           H   tau(  64) = (   0.2210041   0.6326847   1.9785356  )
        65           H   tau(  65) = (   0.4917413   0.7985249   1.9785357  )
        66           H   tau(  66) = (   0.7707376   0.6469936   1.9785356  )

     number of k points=    10  gaussian smearing, width (Ry)=  0.0200
                       cart. coord. in units 2pi/alat
        k(    1) = (   0.0000000   0.0000000   0.0000000), wk =   0.1250000
        k(    2) = (   0.0000000   0.2886751   0.0000000), wk =   0.2500000
        k(    3) = (   0.0000000  -0.5773503   0.0000000), wk =   0.1250000
        k(    4) = (   0.2500000  -0.7216878   0.0000000), wk =   0.2500000
        k(    5) = (  -0.2500000   0.1443376   0.0000000), wk =   0.2500000
        k(    6) = (   0.2500000   0.1443376   0.0000000), wk =   0.2500000
        k(    7) = (   0.5000000  -0.2886751   0.0000000), wk =   0.1250000
        k(    8) = (  -0.5000000  -0.2886751   0.0000000), wk =   0.1250000
        k(    9) = (  -0.2500000  -0.7216878   0.0000000), wk =   0.2500000
        k(   10) = (  -0.5000000  -0.5773503   0.0000000), wk =   0.2500000

     Dense  grid:  2552337 G-vectors     FFT dimensions: ( 120, 120, 432)

     Smooth grid:   491295 G-vectors     FFT dimensions: (  72,  72, 243)

     Estimated max dynamical RAM per process >       1.14 GB

     Estimated total dynamical RAM >      18.26 GB

     Initial potential from superposition of free atoms
     Check: negative starting charge=   -0.000813

     starting charge 1001.99960, renormalised to 1056.00000

     negative rho (up, down):  8.568E-04 0.000E+00


     %%%%%%%%%%%%%%%%%%%%%%%%%%%%%%%%%%%%%%%%%%%%%%%%%%%%%%%%%%%%%%%%%%%%%%%%
     %                                                                      %
     % You are using vdW-DF, which was implemented by the Thonhauser group. %
     % Please cite the following two papers that made this development      %
     % possible and the two reviews that describe the various versions:     %
     %                                                                      %
     %   T. Thonhauser et al., PRL 115, 136402 (2015).                      %
     %   T. Thonhauser et al., PRB 76, 125112 (2007).                       %
     %   K. Berland et al., Rep. Prog. Phys. 78, 066501 (2015).             %
     %   D.C. Langreth et al., J. Phys.: Condens. Matter 21, 084203 (2009). %
     %                                                                      %
     %                                                                      %
     % If you are calculating the stress with vdW-DF, please also cite:     %
     %                                                                      %
     %   R. Sabatini et al., J. Phys.: Condens. Matter 24, 424209 (2012).   %
     %                                                                      %
     %%%%%%%%%%%%%%%%%%%%%%%%%%%%%%%%%%%%%%%%%%%%%%%%%%%%%%%%%%%%%%%%%%%%%%%%


     Starting wfcs are  732 randomized atomic wfcs

     total cpu time spent up to now is       74.7 secs

     Self-consistent Calculation

     iteration #  1     ecut=    50.00 Ry     beta= 0.30
     Davidson diagonalization with overlap
     ethr =  1.00E-02,  avg # of iterations =  6.1

     negative rho (up, down):  5.106E-04 0.000E+00

     total cpu time spent up to now is     1378.7 secs

     total energy              =  -18821.50181181 Ry
     Harris-Foulkes estimate   =  -22011.55007176 Ry
     estimated scf accuracy    <    6304.20281440 Ry

     iteration #  2     ecut=    50.00 Ry     beta= 0.30
     Davidson diagonalization with overlap
     ethr =  1.00E-02,  avg # of iterations = 18.5

     negative rho (up, down):  5.536E-04 0.000E+00

     total cpu time spent up to now is     4067.1 secs

     total energy              =  -19229.59432619 Ry
     Harris-Foulkes estimate   =  -39171.04882147 Ry
     estimated scf accuracy    <  278627.12614965 Ry

     iteration #  3     ecut=    50.00 Ry     beta= 0.30
     Davidson diagonalization with overlap
     ethr =  1.00E-02,  avg # of iterations =  7.0

     negative rho (up, down):  6.279E-04 0.000E+00

     total cpu time spent up to now is     5519.8 secs

     total energy              =  -21484.34912580 Ry
     Harris-Foulkes estimate   =  -23525.49945941 Ry
     estimated scf accuracy    <   59301.36848555 Ry

     iteration #  4     ecut=    50.00 Ry     beta= 0.30
     Davidson diagonalization with overlap
     ethr =  1.00E-02,  avg # of iterations =  8.2

     negative rho (up, down):  7.484E-04 0.000E+00

     total cpu time spent up to now is     7296.9 secs

     total energy              =  -21643.56831172 Ry
     Harris-Foulkes estimate   =  -22141.75723686 Ry
     estimated scf accuracy    <   15750.67149490 Ry

     iteration #  5     ecut=    50.00 Ry     beta= 0.30
     Davidson diagonalization with overlap
     ethr =  1.00E-02,  avg # of iterations =  6.3

     negative rho (up, down):  8.094E-04 0.000E+00

     total cpu time spent up to now is     8685.9 secs

     total energy              =  -21803.45007690 Ry
     Harris-Foulkes estimate   =  -22240.37909442 Ry
     estimated scf accuracy    <    9011.46768737 Ry

     iteration #  6     ecut=    50.00 Ry     beta= 0.30
     Davidson diagonalization with overlap
     ethr =  1.00E-02,  avg # of iterations =  6.8

     negative rho (up, down):  9.559E-04 0.000E+00

     total cpu time spent up to now is     9737.4 secs

     total energy              =  -21903.27085262 Ry
     Harris-Foulkes estimate   =  -21972.30922060 Ry
     estimated scf accuracy    <    2486.18172526 Ry

     iteration #  7     ecut=    50.00 Ry     beta= 0.30
     Davidson diagonalization with overlap
     ethr =  1.00E-02,  avg # of iterations =  2.9

     negative rho (up, down):  1.128E-03 0.000E+00

     total cpu time spent up to now is     9982.6 secs

     total energy              =  -21914.93861111 Ry
     Harris-Foulkes estimate   =  -21940.34489315 Ry
     estimated scf accuracy    <     293.45302350 Ry

     iteration #  8     ecut=    50.00 Ry     beta= 0.30
     Davidson diagonalization with overlap
     ethr =  1.00E-02,  avg # of iterations =  2.5

     negative rho (up, down):  1.249E-03 0.000E+00

     total cpu time spent up to now is    10205.3 secs

     total energy              =  -21917.25453340 Ry
     Harris-Foulkes estimate   =  -21922.26678509 Ry
     estimated scf accuracy    <     161.16911216 Ry

     iteration #  9     ecut=    50.00 Ry     beta= 0.30
     Davidson diagonalization with overlap
     ethr =  1.00E-02,  avg # of iterations =  1.3

     negative rho (up, down):  1.379E-03 0.000E+00

     total cpu time spent up to now is    10391.0 secs

     total energy              =  -21913.12095985 Ry
     Harris-Foulkes estimate   =  -21918.72083777 Ry
     estimated scf accuracy    <      80.25634739 Ry

     iteration # 10     ecut=    50.00 Ry     beta= 0.30
     Davidson diagonalization with overlap
     ethr =  7.60E-03,  avg # of iterations =  1.7

     negative rho (up, down):  1.704E-03 0.000E+00

     total cpu time spent up to now is    10586.9 secs

     total energy              =  -21889.35669748 Ry
     Harris-Foulkes estimate   =  -21914.68010073 Ry
     estimated scf accuracy    <     152.69828828 Ry

     iteration # 11     ecut=    50.00 Ry     beta= 0.30
     Davidson diagonalization with overlap
     ethr =  7.60E-03,  avg # of iterations =  3.6

     negative rho (up, down):  2.508E-04 0.000E+00

     total cpu time spent up to now is    10984.5 secs

     total energy              =  -21893.46044065 Ry
     Harris-Foulkes estimate   =  -21937.80737606 Ry
     estimated scf accuracy    <    1301.58226009 Ry

     iteration # 12     ecut=    50.00 Ry     beta= 0.30
     Davidson diagonalization with overlap
     ethr =  7.60E-03,  avg # of iterations =  2.3

     negative rho (up, down):  2.688E-04 0.000E+00

     total cpu time spent up to now is    11203.8 secs

     total energy              =  -21899.81054399 Ry
     Harris-Foulkes estimate   =  -21912.34851171 Ry
     estimated scf accuracy    <     172.32131769 Ry

     iteration # 13     ecut=    50.00 Ry     beta= 0.30
     Davidson diagonalization with overlap
     ethr =  7.60E-03,  avg # of iterations =  1.6

     negative rho (up, down):  3.253E-04 0.000E+00

     total cpu time spent up to now is    11397.4 secs

     total energy              =  -21899.65770319 Ry
     Harris-Foulkes estimate   =  -21905.56296178 Ry
     estimated scf accuracy    <      24.18931193 Ry

     iteration # 14     ecut=    50.00 Ry     beta= 0.30
     Davidson diagonalization with overlap
     ethr =  2.29E-03,  avg # of iterations =  4.0

     negative rho (up, down):  3.844E-04 0.000E+00

     total cpu time spent up to now is    11736.2 secs

     total energy              =  -21903.12509380 Ry
     Harris-Foulkes estimate   =  -21904.96863508 Ry
     estimated scf accuracy    <      22.86808041 Ry

     iteration # 15     ecut=    50.00 Ry     beta= 0.30
     Davidson diagonalization with overlap
     ethr =  2.17E-03,  avg # of iterations =  1.0

     negative rho (up, down):  4.147E-04 0.000E+00

     total cpu time spent up to now is    11909.0 secs

     total energy              =  -21903.51904660 Ry
     Harris-Foulkes estimate   =  -21904.21548918 Ry
     estimated scf accuracy    <       7.31018756 Ry

     iteration # 16     ecut=    50.00 Ry     beta= 0.30
     Davidson diagonalization with overlap
     ethr =  6.92E-04,  avg # of iterations =  3.7

     negative rho (up, down):  4.650E-04 0.000E+00

     total cpu time spent up to now is    12168.3 secs

     total energy              =  -21903.76051536 Ry
     Harris-Foulkes estimate   =  -21904.02061722 Ry
     estimated scf accuracy    <       1.66723368 Ry

     iteration # 17     ecut=    50.00 Ry     beta= 0.30
     Davidson diagonalization with overlap
     ethr =  1.58E-04,  avg # of iterations =  6.3

     negative rho (up, down):  6.132E-04 0.000E+00

     total cpu time spent up to now is    12529.9 secs

     total energy              =  -21903.66565549 Ry
     Harris-Foulkes estimate   =  -21903.87718768 Ry
     estimated scf accuracy    <       2.19716716 Ry

     iteration # 18     ecut=    50.00 Ry     beta= 0.30
     Davidson diagonalization with overlap
     ethr =  1.58E-04,  avg # of iterations =  9.3

     negative rho (up, down):  6.724E-04 0.000E+00

     total cpu time spent up to now is    12977.6 secs

     total energy              =  -21903.69908181 Ry
     Harris-Foulkes estimate   =  -21903.83068851 Ry
     estimated scf accuracy    <       1.72679269 Ry

     iteration # 19     ecut=    50.00 Ry     beta= 0.30
     Davidson diagonalization with overlap
     ethr =  1.58E-04,  avg # of iterations =  3.9

     negative rho (up, down):  9.116E-04 0.000E+00

     total cpu time spent up to now is    13247.5 secs

     total energy              =  -21903.74006269 Ry
     Harris-Foulkes estimate   =  -21903.77879972 Ry
     estimated scf accuracy    <       0.43283325 Ry

     iteration # 20     ecut=    50.00 Ry     beta= 0.30
     Davidson diagonalization with overlap
     ethr =  4.10E-05,  avg # of iterations =  8.2

     negative rho (up, down):  1.215E-03 0.000E+00

     total cpu time spent up to now is    13672.7 secs

     total energy              =  -21903.73626782 Ry
     Harris-Foulkes estimate   =  -21903.75991948 Ry
     estimated scf accuracy    <       0.07384759 Ry

     iteration # 21     ecut=    50.00 Ry     beta= 0.30
     Davidson diagonalization with overlap
     ethr =  6.99E-06,  avg # of iterations =  6.7

     negative rho (up, down):  1.233E-03 0.000E+00

     total cpu time spent up to now is    14215.7 secs

     total energy              =  -21903.73246048 Ry
     Harris-Foulkes estimate   =  -21903.76766946 Ry
     estimated scf accuracy    <       0.32601186 Ry

     iteration # 22     ecut=    50.00 Ry     beta= 0.30
     Davidson diagonalization with overlap
     ethr =  6.99E-06,  avg # of iterations =  6.3

     negative rho (up, down):  1.240E-03 0.000E+00

     total cpu time spent up to now is    14587.3 secs

     total energy              =  -21903.74758555 Ry
     Harris-Foulkes estimate   =  -21903.75241151 Ry
     estimated scf accuracy    <       0.01986272 Ry

     iteration # 23     ecut=    50.00 Ry     beta= 0.30
     Davidson diagonalization with overlap
     ethr =  1.88E-06,  avg # of iterations =  7.1

     negative rho (up, down):  1.388E-03 0.000E+00

     total cpu time spent up to now is    15050.1 secs

     total energy              =  -21903.74975922 Ry
     Harris-Foulkes estimate   =  -21903.75119319 Ry
     estimated scf accuracy    <       0.00576312 Ry

     iteration # 24     ecut=    50.00 Ry     beta= 0.30
     Davidson diagonalization with overlap
     ethr =  5.46E-07,  avg # of iterations =  6.1

     negative rho (up, down):  1.577E-03 0.000E+00

     total cpu time spent up to now is    15396.6 secs

     total energy              =  -21903.75017180 Ry
     Harris-Foulkes estimate   =  -21903.75060127 Ry
     estimated scf accuracy    <       0.00465903 Ry

     iteration # 25     ecut=    50.00 Ry     beta= 0.30
     Davidson diagonalization with overlap
     ethr =  4.41E-07,  avg # of iterations =  3.2

     negative rho (up, down):  1.790E-03 0.000E+00

     total cpu time spent up to now is    15654.0 secs

     total energy              =  -21903.75036226 Ry
     Harris-Foulkes estimate   =  -21903.75045141 Ry
     estimated scf accuracy    <       0.00098646 Ry

     iteration # 26     ecut=    50.00 Ry     beta= 0.30
     Davidson diagonalization with overlap
     ethr =  9.34E-08,  avg # of iterations =  5.6

     negative rho (up, down):  1.963E-03 0.000E+00

     total cpu time spent up to now is    15992.6 secs

     total energy              =  -21903.75039389 Ry
     Harris-Foulkes estimate   =  -21903.75054413 Ry
     estimated scf accuracy    <       0.00184868 Ry

     iteration # 27     ecut=    50.00 Ry     beta= 0.30
     Davidson diagonalization with overlap
     ethr =  9.34E-08,  avg # of iterations =  2.0

     negative rho (up, down):  2.147E-03 0.000E+00

     total cpu time spent up to now is    16195.0 secs

     total energy              =  -21903.75049225 Ry
     Harris-Foulkes estimate   =  -21903.75050311 Ry
     estimated scf accuracy    <       0.00022486 Ry

     iteration # 28     ecut=    50.00 Ry     beta= 0.30
     Davidson diagonalization with overlap
     ethr =  2.13E-08,  avg # of iterations =  2.6

     negative rho (up, down):  2.243E-03 0.000E+00

     total cpu time spent up to now is    16424.9 secs

     total energy              =  -21903.75049988 Ry
     Harris-Foulkes estimate   =  -21903.75052515 Ry
     estimated scf accuracy    <       0.00055731 Ry

     iteration # 29     ecut=    50.00 Ry     beta= 0.30
     Davidson diagonalization with overlap
     ethr =  2.13E-08,  avg # of iterations =  1.0

     negative rho (up, down):  2.407E-03 0.000E+00

     total cpu time spent up to now is    16604.1 secs

     total energy              =  -21903.75052101 Ry
     Harris-Foulkes estimate   =  -21903.75052473 Ry
     estimated scf accuracy    <       0.00015251 Ry

     iteration # 30     ecut=    50.00 Ry     beta= 0.30
     Davidson diagonalization with overlap
     c_bands:  1 eigenvalues not converged
     ethr =  1.44E-08,  avg # of iterations =  4.0

     negative rho (up, down):  2.498E-03 0.000E+00

     total cpu time spent up to now is    16873.3 secs

     total energy              =  -21903.75052748 Ry
     Harris-Foulkes estimate   =  -21903.75052778 Ry
     estimated scf accuracy    <       0.00002274 Ry

     iteration # 31     ecut=    50.00 Ry     beta= 0.30
     Davidson diagonalization with overlap
     ethr =  2.15E-09,  avg # of iterations =  2.7

     negative rho (up, down):  2.560E-03 0.000E+00

     total cpu time spent up to now is    17098.7 secs

     total energy              =  -21903.75052818 Ry
     Harris-Foulkes estimate   =  -21903.75052881 Ry
     estimated scf accuracy    <       0.00000514 Ry

     iteration # 32     ecut=    50.00 Ry     beta= 0.30
     Davidson diagonalization with overlap
     ethr =  4.86E-10,  avg # of iterations =  2.0

     negative rho (up, down):  2.587E-03 0.000E+00

     total cpu time spent up to now is    17312.9 secs

     total energy              =  -21903.75052850 Ry
     Harris-Foulkes estimate   =  -21903.75052937 Ry
     estimated scf accuracy    <       0.00000619 Ry

     iteration # 33     ecut=    50.00 Ry     beta= 0.30
     Davidson diagonalization with overlap
     ethr =  4.86E-10,  avg # of iterations =  1.4

     negative rho (up, down):  2.616E-03 0.000E+00

     total cpu time spent up to now is    17501.0 secs

     total energy              =  -21903.75052884 Ry
     Harris-Foulkes estimate   =  -21903.75052903 Ry
     estimated scf accuracy    <       0.00000085 Ry

     iteration # 34     ecut=    50.00 Ry     beta= 0.30
     Davidson diagonalization with overlap
     ethr =  8.02E-11,  avg # of iterations =  2.0

     negative rho (up, down):  2.625E-03 0.000E+00

     total cpu time spent up to now is    17709.4 secs

     total energy              =  -21903.75052884 Ry
     Harris-Foulkes estimate   =  -21903.75052896 Ry
     estimated scf accuracy    <       0.00000055 Ry

     iteration # 35     ecut=    50.00 Ry     beta= 0.30
     Davidson diagonalization with overlap
     ethr =  5.23E-11,  avg # of iterations =  2.0

     negative rho (up, down):  2.632E-03 0.000E+00

     total cpu time spent up to now is    17913.1 secs

     total energy              =  -21903.75052883 Ry
     Harris-Foulkes estimate   =  -21903.75052890 Ry
     estimated scf accuracy    <       0.00000037 Ry

     iteration # 36     ecut=    50.00 Ry     beta= 0.30
     Davidson diagonalization with overlap
     ethr =  3.54E-11,  avg # of iterations =  1.7

     negative rho (up, down):  2.637E-03 0.000E+00

     total cpu time spent up to now is    18107.9 secs

     total energy              =  -21903.75052879 Ry
     Harris-Foulkes estimate   =  -21903.75052886 Ry
     estimated scf accuracy    <       0.00000027 Ry

     iteration # 37     ecut=    50.00 Ry     beta= 0.30
     Davidson diagonalization with overlap
     ethr =  2.53E-11,  avg # of iterations =  1.0

     negative rho (up, down):  2.643E-03 0.000E+00

     total cpu time spent up to now is    18280.1 secs

     total energy              =  -21903.75052875 Ry
     Harris-Foulkes estimate   =  -21903.75052882 Ry
     estimated scf accuracy    <       0.00000019 Ry

     iteration # 38     ecut=    50.00 Ry     beta= 0.30
     Davidson diagonalization with overlap
     ethr =  1.78E-11,  avg # of iterations =  2.0

     negative rho (up, down):  2.647E-03 0.000E+00

     total cpu time spent up to now is    18484.4 secs

     total energy              =  -21903.75052872 Ry
     Harris-Foulkes estimate   =  -21903.75052876 Ry
     estimated scf accuracy    <       0.00000007 Ry

     iteration # 39     ecut=    50.00 Ry     beta= 0.30
     Davidson diagonalization with overlap
     ethr =  6.67E-12,  avg # of iterations =  1.7

     negative rho (up, down):  2.647E-03 0.000E+00

     total cpu time spent up to now is    18682.1 secs

     total energy              =  -21903.75052871 Ry
     Harris-Foulkes estimate   =  -21903.75052872 Ry
     estimated scf accuracy    <       0.00000010 Ry

     iteration # 40     ecut=    50.00 Ry     beta= 0.30
     Davidson diagonalization with overlap
     ethr =  6.67E-12,  avg # of iterations =  1.0

     negative rho (up, down):  2.649E-03 0.000E+00

     total cpu time spent up to now is    18856.1 secs

     total energy              =  -21903.75052870 Ry
     Harris-Foulkes estimate   =  -21903.75052872 Ry
     estimated scf accuracy    <       0.00000003 Ry

     iteration # 41     ecut=    50.00 Ry     beta= 0.30
     Davidson diagonalization with overlap
     ethr =  2.59E-12,  avg # of iterations =  2.0

     negative rho (up, down):  2.649E-03 0.000E+00

     total cpu time spent up to now is    19061.9 secs

     End of self-consistent calculation

          k = 0.0000 0.0000 0.0000 ( 61453 PWs)   bands (ev):

  -107.7159-107.7075-107.7027-107.7026-107.7015-107.7011-107.7007-107.7007
  -107.6992-107.6984-107.6984-107.6975-107.6975-107.6972-107.6968-107.6968
  -107.6962-107.6952-107.6938-107.6938-107.6930-107.6912-107.6912-107.6889
  -107.6877-107.6869-107.6869-107.6843-107.6823-107.6823-107.6821-107.6821
  -107.6808-107.6799-107.6772-107.6763-107.5441-107.5414-107.5414-107.5091
  -107.5065-107.5065-107.4889-107.4865-107.4865-107.4475-107.4429-107.4429
  -107.4427-107.4418-107.4418-107.4417-107.4395-107.4395 -65.1635 -65.1542
   -65.1493 -65.1493 -65.1486 -65.1486 -65.1475 -65.1429 -65.1429 -65.1428
   -65.1410 -65.1410 -65.1402 -65.1396 -65.1396 -65.1379 -65.1371 -65.1371
   -65.1366 -65.1361 -65.1322 -65.1322 -65.1298 -65.1282 -65.1279 -65.1279
   -65.1265 -65.1265 -65.1263 -65.1253 -65.1253 -65.1243 -65.1243 -65.1233
   -65.1228 -65.1214 -65.1214 -65.1211 -65.1181 -65.1181 -65.1176 -65.1164
   -65.1159 -65.1159 -65.1152 -65.1152 -65.1132 -65.1117 -65.1117 -65.1099
   -65.1092 -65.1090 -65.1090 -65.1088 -65.1087 -65.1078 -65.1029 -65.1017
   -65.1017 -65.1010 -65.1010 -65.0997 -65.0996 -65.0996 -65.0996 -65.0990
   -65.0990 -65.0971 -65.0968 -65.0968 -65.0960 -65.0958 -65.0958 -65.0939
   -65.0931 -65.0912 -65.0910 -65.0910 -65.0908 -65.0904 -65.0904 -65.0887
   -65.0887 -65.0883 -65.0875 -65.0875 -65.0869 -65.0845 -65.0845 -65.0845
   -65.0845 -65.0829 -65.0829 -65.0827 -65.0810 -65.0810 -65.0767 -65.0767
   -65.0763 -65.0749 -65.0748 -65.0748 -65.0740 -65.0740 -65.0712 -65.0712
   -65.0645 -65.0645 -64.9904 -64.9904 -64.9898 -64.9786 -64.9705 -64.9705
   -64.9596 -64.9569 -64.9569 -64.9401 -64.9371 -64.9334 -64.9312 -64.9312
   -64.9276 -64.9276 -64.9250 -64.9250 -64.9132 -64.9042 -64.9042 -64.9024
   -64.9020 -64.9020 -64.9017 -64.9012 -64.9012 -64.8990 -64.8990 -64.8989
   -64.8984 -64.8903 -64.8881 -64.8881 -64.8679 -64.8667 -64.8667 -64.8665
   -64.8663 -64.8663 -64.8657 -64.8657 -64.8654 -64.8541 -64.8541 -64.8192
   -64.8149 -64.8149 -64.8148 -64.8138 -64.8138 -64.8136 -64.8116 -64.8116
   -13.1095 -10.3460 -10.3457  -6.7326  -6.7321  -4.8026  -3.9751  -3.3632
    -3.1822  -2.8265  -2.4377  -2.1620  -2.1618  -1.4696  -1.0577  -1.0099
    -1.0099  -1.0087  -1.0087  -1.0085  -0.9778  -0.6120  -0.6120  -0.6083
    -0.6083  -0.6065  -0.5952  -0.3605  -0.2281  -0.2279  -0.1192  -0.1192
    -0.1109  -0.1085  -0.1015  -0.1015  -0.0856   0.3264   0.3264   0.3417
     0.3442   0.3442   0.3518   0.6728   0.6728   0.6911   0.6915   0.6915
     0.6976   0.8162   0.8162   0.8201   0.8215   0.8215   0.8236   0.8652
     0.8652   0.8691   0.8691   0.8697   0.8714   0.9015   0.9015   0.9154
     0.9154   0.9211   0.9213   1.0171   1.0177   1.0275   1.0275   1.0307
     1.0307   1.0386   1.0428   1.0428   1.0456   1.0599   1.0599   1.0614
     1.0615   1.0929   1.0929   1.1541   1.1541   1.2033   1.2033   1.2474
     1.2474   1.2522   1.2539   1.2539   1.2574   1.2986   1.2986   1.3887
     1.3887   1.4894   1.4894   1.4919   1.4934   1.5436   1.5436   1.6304
     1.6304   1.6388   1.6388   1.6475   1.6475   1.6489   1.6509   1.6796
     1.6796   1.6818   1.6819   1.6931   1.7085   1.7612   1.7612   1.7624
     1.7635   1.7723   1.7723   1.7740   1.7741   1.8051   1.8051   1.8280
     1.8416   1.8416   1.8445   1.8449   1.8449   1.8490   1.8630   1.8631
     1.8907   1.8907   1.8993   1.9008   1.9008   1.9015   1.9059   1.9059
     1.9222   1.9225   1.9225   1.9241   1.9247   1.9247   1.9305   1.9305
     1.9387   2.0005   2.0005   2.0101   2.0117   2.0421   2.0421   2.0425
     2.0492   2.0607   2.0607   2.0710   2.0710   2.0906   2.0906   2.1028
     2.1031   2.1206   2.1206   2.1207   2.1238   2.1246   2.1246   2.1247
     2.1247   2.2964   2.2964   2.2988   2.3058   2.3469   2.3469   2.3736
     2.3752   2.3752   2.3789   2.3789   2.3796   2.4168   2.4168   2.4251
     2.4302   2.4606   2.4606   2.4609   2.4609   2.4769   2.4769   2.4862
     2.4864   2.5469   2.5519   2.5519   2.5699   2.5699   2.5744   2.5777
     2.5777   2.5882   2.5882   2.5921   2.6011   2.6012   2.6044   2.6087
     2.6087   2.6092   2.6092   2.6103   2.6214   2.6214   2.6812   2.6812
     2.7489   2.7497   2.7497   2.7516   2.7519   2.7519   2.8023   2.8036
     2.8036   2.8053   2.8117   2.8117   2.8120   2.8130   2.8136   2.8136
     2.8179   2.8179   2.8624   2.8624   2.8748   2.8773   2.8774   2.8794
     2.8794   2.8804   2.8908   2.8908   2.8908   2.8921   2.8927   2.8927
     2.9090   2.9101   2.9101   2.9112   2.9116   2.9116   2.9208   2.9208
     2.9539   2.9585   2.9585   2.9614   2.9614   2.9668   2.9668   2.9703
     2.9868   2.9873   3.0072   3.0072   3.0072   3.0085   3.0085   3.0094
     3.0285   3.0285   3.0323   3.0323   3.0455   3.0455   3.0613   3.0630
     3.0674   3.0674   3.0675   3.0710   3.0710   3.0724   3.0931   3.0931
     3.0953   3.1032   3.1032   3.1102   3.1516   3.1519   3.1519   3.1549
     3.1549   3.1551   3.1753   3.1753   3.9870   4.0625   4.0625   4.0729
     4.1496   4.1669   4.1669   4.6589   5.4608   5.4608   5.4971   5.5692
     5.6153   5.6153   6.7672   6.7674   6.9839   7.2444   7.3505   7.4114
     7.4115   7.4693   7.4693   7.9498   7.9498   7.9509   7.9513   7.9682
     7.9682   8.1916   8.3395   8.3395   8.3653   8.3653   8.4412   8.7321
     8.7408   8.8137   8.8942   8.8943   8.9898   8.9944   9.0134   9.2374
     9.2374   9.3779   9.4435   9.6277   9.6277   9.6457   9.6457   9.8944
     9.8946   9.9144  10.0095  10.0147  10.5461  10.5710  10.7136  10.7136
    10.8083  10.8083  10.8191  10.8191  10.9905  10.9905  11.0464  11.0464
    11.0718  11.1473  11.1995  11.3534  11.3534  11.4471  11.4471  11.4694
    11.5517  11.6077  11.6077  11.7688  11.8319  11.8319  11.8988  11.8988
    11.9630  12.0048  12.0048  12.0374  12.0374  12.0552  12.1323  12.2328
    12.2328  12.2893  12.3180  12.3915  12.3915  12.6009  12.6009  12.7963
    12.8828  12.8861  12.8862  13.0480  13.0481  13.0746  13.0811  13.1286
    13.2141  13.2276

          k = 0.0000 0.2887 0.0000 ( 61417 PWs)   bands (ev):

  -107.7159-107.7071-107.7037-107.7029-107.7017-107.7008-107.7003-107.7002
  -107.6991-107.6985-107.6984-107.6976-107.6976-107.6970-107.6969-107.6968
  -107.6962-107.6950-107.6943-107.6939-107.6930-107.6911-107.6910-107.6889
  -107.6875-107.6869-107.6868-107.6845-107.6829-107.6828-107.6817-107.6814
  -107.6805-107.6801-107.6772-107.6763-107.5441-107.5415-107.5414-107.5091
  -107.5065-107.5065-107.4889-107.4865-107.4864-107.4470-107.4441-107.4431
  -107.4428-107.4416-107.4414-107.4408-107.4397-107.4397 -65.1623 -65.1551
   -65.1518 -65.1508 -65.1500 -65.1495 -65.1487 -65.1479 -65.1461 -65.1455
   -65.1441 -65.1438 -65.1429 -65.1423 -65.1390 -65.1380 -65.1368 -65.1354
   -65.1342 -65.1341 -65.1327 -65.1324 -65.1323 -65.1315 -65.1303 -65.1301
   -65.1294 -65.1281 -65.1250 -65.1247 -65.1233 -65.1222 -65.1221 -65.1214
   -65.1209 -65.1197 -65.1196 -65.1181 -65.1171 -65.1168 -65.1151 -65.1147
   -65.1132 -65.1116 -65.1115 -65.1108 -65.1104 -65.1102 -65.1090 -65.1087
   -65.1073 -65.1070 -65.1063 -65.1058 -65.1054 -65.1041 -65.1036 -65.1036
   -65.1019 -65.1017 -65.1012 -65.1011 -65.1005 -65.1000 -65.0988 -65.0981
   -65.0967 -65.0964 -65.0959 -65.0953 -65.0945 -65.0943 -65.0939 -65.0935
   -65.0932 -65.0927 -65.0923 -65.0917 -65.0912 -65.0906 -65.0905 -65.0898
   -65.0894 -65.0884 -65.0882 -65.0872 -65.0869 -65.0865 -65.0861 -65.0857
   -65.0852 -65.0839 -65.0830 -65.0824 -65.0822 -65.0796 -65.0796 -65.0795
   -65.0781 -65.0773 -65.0758 -65.0755 -65.0751 -65.0747 -65.0723 -65.0717
   -65.0685 -65.0655 -64.9932 -64.9919 -64.9911 -64.9789 -64.9695 -64.9673
   -64.9598 -64.9555 -64.9544 -64.9390 -64.9363 -64.9334 -64.9311 -64.9311
   -64.9289 -64.9283 -64.9251 -64.9227 -64.9142 -64.9132 -64.9078 -64.9075
   -64.9070 -64.9065 -64.9062 -64.9048 -64.8947 -64.8943 -64.8904 -64.8889
   -64.8886 -64.8881 -64.8880 -64.8858 -64.8705 -64.8703 -64.8693 -64.8679
   -64.8664 -64.8660 -64.8657 -64.8657 -64.8622 -64.8584 -64.8552 -64.8188
   -64.8161 -64.8151 -64.8148 -64.8136 -64.8134 -64.8129 -64.8117 -64.8117
   -13.1087 -10.3494 -10.3465  -6.7354  -6.7279  -4.7750  -3.7620  -3.1567
    -3.1530  -2.8302  -2.2641  -2.2003  -2.1702  -2.1501  -1.6277  -1.4575
    -1.4471  -1.3501  -0.9937  -0.9684  -0.9191  -0.7796  -0.3916  -0.3905
    -0.3194  -0.3147  -0.2455  -0.2222  -0.2079  -0.1794  -0.1068  -0.1056
     0.0271   0.0596   0.0686   0.1641   0.1660   0.1674   0.3289   0.3485
     0.3702   0.4354   0.4367   0.6094   0.6275   0.6614   0.6616   0.6755
     0.6978   0.6978   0.7118   0.7160   0.7513   0.7637   0.7672   0.7688
     0.7783   0.7794   0.8218   0.8219   0.8553   0.8560   0.8834   0.8869
     0.8879   0.9363   0.9415   0.9544   0.9544   0.9722   0.9738   0.9852
     0.9860   1.0075   1.0093   1.0625   1.1230   1.1287   1.1291   1.1491
     1.1530   1.1633   1.1693   1.1943   1.1947   1.2364   1.2396   1.2434
     1.2831   1.3132   1.3140   1.3184   1.3389   1.3536   1.3770   1.3861
     1.4018   1.4108   1.4233   1.4418   1.4567   1.4668   1.4970   1.5174
     1.5197   1.5355   1.5395   1.5520   1.5810   1.5954   1.6075   1.6102
     1.6138   1.6240   1.6603   1.6655   1.6925   1.7220   1.7362   1.7427
     1.7432   1.7562   1.7583   1.7622   1.7925   1.8009   1.8028   1.8153
     1.8162   1.8271   1.8308   1.8354   1.8501   1.8562   1.8566   1.8751
     1.8868   1.8916   1.8926   1.8964   1.9023   1.9105   1.9158   1.9214
     1.9227   1.9287   1.9319   1.9323   1.9546   1.9599   1.9627   1.9726
     1.9739   1.9924   1.9934   1.9974   2.0001   2.0073   2.0080   2.0298
     2.0468   2.0492   2.0607   2.0713   2.0717   2.0742   2.0764   2.0839
     2.1013   2.1024   2.1226   2.1342   2.1376   2.1403   2.1557   2.1565
     2.1714   2.1801   2.1846   2.1863   2.2096   2.2167   2.2174   2.2372
     2.2591   2.2601   2.2906   2.3062   2.3091   2.3111   2.3155   2.3188
     2.3676   2.3899   2.4093   2.4116   2.4166   2.4202   2.4364   2.4376
     2.4674   2.4679   2.4787   2.4805   2.4822   2.4858   2.4992   2.5025
     2.5452   2.5504   2.5554   2.5567   2.5627   2.5866   2.5906   2.5908
     2.5952   2.5969   2.6261   2.6407   2.6425   2.6439   2.6500   2.6596
     2.6689   2.6696   2.6855   2.6892   2.6943   2.6946   2.7052   2.7092
     2.7214   2.7290   2.7770   2.7844   2.7869   2.8105   2.8136   2.8255
     2.8303   2.8313   2.8325   2.8341   2.8448   2.8500   2.8516   2.8636
     2.8639   2.8712   2.8730   2.8974   2.9185   2.9189   2.9206   2.9206
     2.9323   2.9360   2.9479   2.9531   2.9612   2.9625   3.0054   3.0056
     3.0115   3.0119   3.0145   3.0256   3.0290   3.0333   3.0351   3.0387
     3.0424   3.0434   3.0516   3.0518   3.0581   3.0606   3.0680   3.0719
     3.0904   3.0990   3.0999   3.1017   3.1032   3.1063   3.1066   3.1081
     3.1309   3.1391   3.1519   3.1535   3.1551   3.1636   3.1705   3.1769
     3.2109   3.2649   3.3242   3.3844   3.4137   3.4155   3.5136   3.5741
     3.5750   3.8267   3.8676   3.8790   3.8886   3.9379   4.1874   4.4413
     4.5998   4.8415   4.8543   5.0804   5.1729   5.2028   5.2463   5.9435
     5.9456   6.1657   6.2152   6.3165   6.3360   6.3374   6.5258   6.7434
     6.8155   6.9418   7.0014   7.0797   7.1581   7.2985   7.5612   7.8405
     7.8680   7.8861   8.0359   8.1383   8.2956   8.3335   8.3532   8.4520
     8.5277   8.7305   8.8109   8.8151   8.9470   8.9957   9.3091   9.3550
     9.3630   9.4796   9.5689   9.7239   9.8136   9.8575   9.9096   9.9975
    10.0445  10.0858  10.1282  10.2157  10.2802  10.4087  10.5102  10.5164
    10.5732  10.5777  10.6149  10.7290  10.7462  10.8143  10.8478  10.8518
    10.9804  11.0306  11.0413  11.0956  11.1327  11.2894  11.4668  11.4811
    11.5150  11.5577  11.6161  11.7164  11.7745  11.8169  11.8721  12.0122
    12.0787  12.1721  12.2362  12.3182  12.3987  12.4247  12.5063  12.5183
    12.5735  12.6367  12.7179  12.7733  12.8336  12.8401  12.9231  12.9339
    12.9929  13.0808  13.1395  13.1582  13.2182  13.2827  13.3447  13.4066
    13.4400  13.4994

          k = 0.0000-0.5774 0.0000 ( 61408 PWs)   bands (ev):

  -107.7159-107.7064-107.7048-107.7031-107.7019-107.7004-107.6998-107.6997
  -107.6996-107.6982-107.6982-107.6981-107.6977-107.6970-107.6967-107.6964
  -107.6963-107.6950-107.6949-107.6939-107.6931-107.6910-107.6908-107.6889
  -107.6873-107.6869-107.6867-107.6848-107.6833-107.6830-107.6816-107.6807
  -107.6807-107.6803-107.6772-107.6763-107.5441-107.5415-107.5414-107.5092
  -107.5065-107.5065-107.4890-107.4865-107.4864-107.4461-107.4455-107.4433
  -107.4431-107.4411-107.4409-107.4405-107.4400-107.4399 -65.1603 -65.1569
   -65.1547 -65.1535 -65.1516 -65.1498 -65.1489 -65.1483 -65.1472 -65.1469
   -65.1464 -65.1460 -65.1455 -65.1445 -65.1419 -65.1388 -65.1357 -65.1355
   -65.1353 -65.1345 -65.1339 -65.1334 -65.1334 -65.1330 -65.1313 -65.1302
   -65.1298 -65.1285 -65.1246 -65.1230 -65.1223 -65.1222 -65.1216 -65.1205
   -65.1198 -65.1170 -65.1159 -65.1150 -65.1133 -65.1128 -65.1127 -65.1124
   -65.1117 -65.1107 -65.1101 -65.1100 -65.1094 -65.1079 -65.1077 -65.1064
   -65.1057 -65.1052 -65.1051 -65.1047 -65.1040 -65.1040 -65.1024 -65.1021
   -65.1006 -65.0998 -65.0992 -65.0990 -65.0983 -65.0980 -65.0977 -65.0977
   -65.0975 -65.0972 -65.0967 -65.0956 -65.0949 -65.0944 -65.0937 -65.0932
   -65.0932 -65.0922 -65.0916 -65.0909 -65.0906 -65.0904 -65.0903 -65.0893
   -65.0892 -65.0886 -65.0879 -65.0877 -65.0875 -65.0869 -65.0866 -65.0863
   -65.0856 -65.0852 -65.0847 -65.0831 -65.0824 -65.0821 -65.0821 -65.0805
   -65.0796 -65.0793 -65.0790 -65.0773 -65.0770 -65.0758 -65.0756 -65.0742
   -65.0690 -65.0674 -64.9955 -64.9931 -64.9921 -64.9795 -64.9682 -64.9645
   -64.9619 -64.9517 -64.9512 -64.9411 -64.9352 -64.9334 -64.9311 -64.9311
   -64.9297 -64.9290 -64.9231 -64.9197 -64.9174 -64.9161 -64.9111 -64.9100
   -64.9097 -64.9093 -64.9090 -64.9054 -64.8910 -64.8907 -64.8904 -64.8881
   -64.8880 -64.8788 -64.8786 -64.8784 -64.8779 -64.8704 -64.8704 -64.8697
   -64.8680 -64.8673 -64.8670 -64.8657 -64.8656 -64.8585 -64.8579 -64.8179
   -64.8172 -64.8153 -64.8150 -64.8131 -64.8131 -64.8127 -64.8119 -64.8118
   -13.1079 -10.3529 -10.3472  -6.7386  -6.7232  -4.7464  -3.1388  -3.1373
    -3.1242  -2.8341  -2.5558  -2.5516  -2.2599  -2.1784  -1.7287  -1.6295
    -1.6037  -1.6026  -1.2248  -1.0979  -1.0587  -0.5805  -0.5010  -0.3849
    -0.3702  -0.2826  -0.2219   0.0096   0.1747   0.1940   0.2124   0.2132
     0.2141   0.2154   0.2183   0.2983   0.3521   0.3772   0.3786   0.3913
     0.3927   0.4108   0.4111   0.4123   0.4125   0.4640   0.4642   0.4659
     0.4659   0.5953   0.6246   0.6249   0.6298   0.6300   0.6471   0.7077
     0.8075   0.8083   0.8105   0.8109   0.8145   0.8292   0.8473   0.8524
     0.8551   0.8599   0.8601   0.9802   0.9810   0.9839   0.9840   1.0013
     1.0072   1.0816   1.0839   1.0891   1.0986   1.0991   1.1431   1.1441
     1.1842   1.1859   1.2268   1.2292   1.2497   1.2499   1.2827   1.3106
     1.3168   1.3187   1.3506   1.3512   1.3615   1.3639   1.3742   1.3887
     1.3896   1.4199   1.4271   1.4713   1.4780   1.4894   1.4958   1.5158
     1.5204   1.5310   1.5386   1.5441   1.5443   1.5537   1.5587   1.6009
     1.6010   1.6026   1.6048   1.6101   1.6241   1.6629   1.6667   1.6770
     1.6777   1.6795   1.6813   1.6848   1.6876   1.7057   1.7299   1.7700
     1.7775   1.7796   1.7846   1.7920   1.8130   1.8278   1.8287   1.8302
     1.8314   1.8340   1.8421   1.8806   1.8871   1.8920   1.8961   1.9003
     1.9080   1.9089   1.9368   1.9409   1.9445   1.9476   1.9687   1.9707
     1.9723   1.9767   1.9778   1.9956   1.9968   2.0014   2.0057   2.0256
     2.0303   2.0550   2.0681   2.0699   2.1205   2.1224   2.1323   2.1341
     2.1346   2.1361   2.1362   2.1367   2.1411   2.1491   2.1562   2.1579
     2.1648   2.1758   2.1772   2.1823   2.1823   2.1872   2.1874   2.2579
     2.2603   2.2644   2.2748   2.3275   2.3283   2.3358   2.3373   2.3411
     2.3461   2.3474   2.3556   2.3598   2.3646   2.3743   2.3885   2.4066
     2.4154   2.4176   2.4209   2.4245   2.4382   2.4470   2.4477   2.4490
     2.4513   2.4638   2.4679   2.4712   2.4744   2.4878   2.4882   2.5737
     2.5760   2.6009   2.6032   2.6266   2.6275   2.6313   2.6328   2.6580
     2.6592   2.6702   2.6857   2.6948   2.7030   2.7052   2.7096   2.7236
     2.7266   2.7414   2.7432   2.7451   2.7472   2.7586   2.7669   2.7739
     2.7789   2.7823   2.7930   2.8317   2.8318   2.8364   2.8372   2.8475
     2.8476   2.8619   2.8677   2.8926   2.8955   2.9090   2.9130   2.9306
     2.9309   2.9503   2.9578   2.9679   2.9750   3.0094   3.0103   3.0306
     3.0368   3.0381   3.0426   3.0609   3.0675   3.0682   3.0695   3.0704
     3.0722   3.0783   3.1000   3.1005   3.1012   3.1013   3.1020   3.1161
     3.1185   3.1222   3.1335   3.1400   3.1511   3.1553   3.1613   3.1629
     3.1637   3.1784   3.1843   3.2041   3.2060   3.2182   3.2190   3.2218
     3.2220   3.2862   3.3447   3.8399   3.8915   3.9030   3.9299   4.3744
     4.4288   4.4298   4.4299   4.4307   4.6878   4.6936   4.6957   4.6969
     5.0098   5.0400   5.0976   5.1734   5.2169   5.2369   5.2575   5.2786
     5.2999   5.5289   5.8619   6.1000   6.1092   6.1301   6.1991   6.2304
     6.2358   6.2779   6.2933   6.6552   6.7949   6.9000   7.0172   7.5249
     7.5398   7.5486   7.7527   7.8258   7.9836   8.3142   8.4063   8.4195
     8.6601   8.6704   8.6787   8.7240   8.9319   8.9864   9.0248   9.2083
     9.3052   9.3195   9.3281   9.3412   9.4491   9.5593   9.6278   9.7592
     9.8271   9.9353   9.9481   9.9955  10.0405  10.2524  10.3124  10.4005
    10.4162  10.5018  10.5938  10.6248  10.6458  10.7920  10.8857  11.0211
    11.0456  11.1124  11.2555  11.2886  11.2963  11.4269  11.4617  11.5027
    11.6768  11.7239  11.7937  12.0222  12.1468  12.1811  12.3215  12.3589
    12.3684  12.3829  12.4247  12.6543  12.6886  12.8152  12.8462  12.9286
    12.9779  13.0406  13.1162  13.1393  13.2152  13.3014  13.3103  13.3164
    13.3723  13.3787  13.3874  13.4267  13.6297  13.6455  13.6614  13.7233
    13.8393  13.8712

          k = 0.2500-0.7217 0.0000 ( 61343 PWs)   bands (ev):

  -107.7159-107.7064-107.7044-107.7038-107.7013-107.7006-107.7000-107.6996
  -107.6994-107.6988-107.6983-107.6980-107.6974-107.6970-107.6968-107.6964
  -107.6963-107.6950-107.6947-107.6943-107.6929-107.6910-107.6908-107.6889
  -107.6873-107.6869-107.6867-107.6847-107.6837-107.6826-107.6814-107.6811
  -107.6805-107.6803-107.6772-107.6763-107.5441-107.5415-107.5414-107.5092
  -107.5065-107.5065-107.4890-107.4865-107.4864-107.4463-107.4448-107.4444
  -107.4421-107.4414-107.4409-107.4406-107.4400-107.4398 -65.1605 -65.1560
   -65.1535 -65.1532 -65.1520 -65.1519 -65.1509 -65.1496 -65.1486 -65.1464
   -65.1461 -65.1452 -65.1423 -65.1414 -65.1404 -65.1394 -65.1393 -65.1376
   -65.1364 -65.1340 -65.1335 -65.1331 -65.1325 -65.1315 -65.1307 -65.1305
   -65.1292 -65.1283 -65.1265 -65.1254 -65.1234 -65.1210 -65.1206 -65.1197
   -65.1179 -65.1173 -65.1168 -65.1157 -65.1155 -65.1136 -65.1129 -65.1122
   -65.1120 -65.1110 -65.1101 -65.1098 -65.1080 -65.1069 -65.1064 -65.1059
   -65.1055 -65.1053 -65.1051 -65.1040 -65.1037 -65.1030 -65.1026 -65.1017
   -65.1012 -65.1005 -65.0998 -65.0997 -65.0992 -65.0984 -65.0975 -65.0970
   -65.0966 -65.0959 -65.0956 -65.0953 -65.0947 -65.0944 -65.0936 -65.0935
   -65.0934 -65.0927 -65.0921 -65.0916 -65.0913 -65.0902 -65.0901 -65.0898
   -65.0892 -65.0890 -65.0884 -65.0878 -65.0876 -65.0874 -65.0872 -65.0868
   -65.0858 -65.0846 -65.0842 -65.0832 -65.0825 -65.0819 -65.0815 -65.0813
   -65.0803 -65.0790 -65.0786 -65.0777 -65.0773 -65.0759 -65.0734 -65.0718
   -65.0712 -65.0676 -64.9948 -64.9937 -64.9924 -64.9788 -64.9695 -64.9642
   -64.9601 -64.9542 -64.9508 -64.9409 -64.9338 -64.9333 -64.9311 -64.9310
   -64.9303 -64.9274 -64.9252 -64.9208 -64.9156 -64.9153 -64.9149 -64.9123
   -64.9096 -64.9061 -64.9057 -64.9019 -64.9015 -64.8904 -64.8881 -64.8880
   -64.8823 -64.8803 -64.8793 -64.8792 -64.8738 -64.8734 -64.8728 -64.8724
   -64.8680 -64.8661 -64.8657 -64.8656 -64.8616 -64.8614 -64.8574 -64.8181
   -64.8167 -64.8162 -64.8142 -64.8134 -64.8130 -64.8128 -64.8119 -64.8117
   -13.1079 -10.3515 -10.3486  -6.7347  -6.7271  -4.7466  -3.3425  -3.1256
    -2.8339  -2.7495  -2.5390  -2.5364  -2.2493  -2.2057  -1.9872  -1.9590
    -1.8482  -1.3293  -1.1122  -1.0114  -0.6671  -0.5251  -0.5229  -0.2959
    -0.2457  -0.1779  -0.1733  -0.1338  -0.1096   0.0668   0.0669   0.0769
     0.2331   0.2391   0.2617   0.2622   0.2770   0.3280   0.3367   0.3378
     0.3569   0.4559   0.4568   0.4582   0.4595   0.5167   0.5319   0.5917
     0.5991   0.6086   0.6200   0.6512   0.6514   0.6523   0.6693   0.6710
     0.7178   0.7230   0.7630   0.7663   0.7935   0.7939   0.8250   0.8284
     0.8326   0.8860   0.8885   0.9188   0.9404   0.9603   0.9614   1.0199
     1.0350   1.0842   1.1021   1.1059   1.1199   1.1257   1.1794   1.1830
     1.1996   1.2163   1.2175   1.2204   1.2667   1.2815   1.2923   1.3020
     1.3160   1.3430   1.3466   1.3621   1.3675   1.3866   1.3876   1.3984
     1.4131   1.4431   1.4490   1.4500   1.4513   1.4618   1.4756   1.4852
     1.4876   1.5034   1.5059   1.5333   1.5394   1.5463   1.5582   1.5752
     1.5787   1.5979   1.6395   1.6438   1.6444   1.6521   1.6602   1.6733
     1.6918   1.6994   1.7166   1.7355   1.7370   1.7446   1.7480   1.7517
     1.7727   1.7889   1.7915   1.7918   1.7925   1.8308   1.8369   1.8414
     1.8439   1.8479   1.8559   1.8692   1.8715   1.8891   1.8905   1.8996
     1.9011   1.9194   1.9308   1.9405   1.9579   1.9680   1.9720   1.9779
     1.9809   1.9888   1.9926   1.9951   2.0042   2.0047   2.0145   2.0181
     2.0225   2.0324   2.0375   2.0463   2.0662   2.0693   2.0790   2.0846
     2.1030   2.1044   2.1057   2.1094   2.1109   2.1162   2.1170   2.1211
     2.1218   2.1285   2.1845   2.1853   2.2404   2.2492   2.2513   2.2539
     2.2583   2.2623   2.2791   2.2818   2.3061   2.3114   2.3193   2.3312
     2.3473   2.3499   2.3857   2.3879   2.3921   2.4177   2.4198   2.4214
     2.4221   2.4227   2.4276   2.4289   2.4318   2.4417   2.4596   2.4625
     2.4883   2.4989   2.5086   2.5093   2.5158   2.5237   2.5335   2.5536
     2.5582   2.5649   2.5751   2.5874   2.5932   2.6101   2.6262   2.6269
     2.6382   2.6427   2.6638   2.6713   2.6773   2.6927   2.7105   2.7158
     2.7298   2.7339   2.7371   2.7535   2.7610   2.7743   2.7824   2.7856
     2.7883   2.7919   2.7937   2.7973   2.8060   2.8136   2.8328   2.8509
     2.8716   2.8753   2.8767   2.8905   2.9244   2.9268   2.9404   2.9498
     2.9706   2.9854   2.9897   2.9940   2.9965   2.9991   3.0064   3.0378
     3.0416   3.0427   3.0458   3.0503   3.0584   3.0610   3.0639   3.0650
     3.0706   3.0718   3.0740   3.0757   3.0801   3.0904   3.0935   3.1035
     3.1055   3.1168   3.1176   3.1274   3.1354   3.1440   3.1516   3.1594
     3.1607   3.1769   3.1931   3.1974   3.2186   3.2384   3.2400   3.4048
     3.4279   3.5067   3.5074   3.6013   3.6050   3.7396   3.9249   3.9373
     4.3212   4.3659   4.4121   4.4153   4.4325   4.6879   4.7784   4.8096
     4.8187   4.8236   5.0130   5.2507   5.2817   5.2885   5.7418   5.7644
     5.8085   5.9544   5.9916   6.0203   6.0356   6.1799   6.1883   6.2410
     6.3386   6.6483   6.6995   6.7553   6.9115   6.9618   7.0561   7.1205
     7.1521   7.2052   7.2474   7.4892   7.6965   7.7323   8.0083   8.0485
     8.4563   8.5933   8.5999   8.7031   8.7513   8.8911   9.1482   9.1856
     9.2646   9.3565   9.3936   9.5235   9.5637   9.6079   9.7479   9.7807
     9.8253  10.0115  10.0744  10.1463  10.1998  10.4010  10.4163  10.5106
    10.5490  10.6518  10.8267  10.8981  10.9660  11.0122  11.1073  11.1934
    11.2117  11.2908  11.4301  11.5722  11.5845  11.6395  11.6501  11.7325
    11.7927  11.8923  11.9267  11.9584  11.9900  12.0844  12.1362  12.2187
    12.3127  12.3906  12.4871  12.5079  12.5739  12.6285  12.6790  12.7225
    12.7397  12.8116  12.8345  12.8939  12.9629  13.0997  13.1461  13.1933
    13.3217  13.3542  13.3935  13.4316  13.5175  13.5793  13.6293  13.6839
    13.7323  13.7541

          k =-0.2500 0.1443 0.0000 ( 61417 PWs)   bands (ev):

  -107.7159-107.7071-107.7037-107.7029-107.7017-107.7008-107.7002-107.7002
  -107.6991-107.6985-107.6984-107.6976-107.6976-107.6970-107.6969-107.6968
  -107.6962-107.6950-107.6943-107.6939-107.6930-107.6911-107.6910-107.6889
  -107.6875-107.6869-107.6868-107.6845-107.6829-107.6828-107.6817-107.6814
  -107.6805-107.6801-107.6772-107.6763-107.5441-107.5414-107.5414-107.5091
  -107.5065-107.5065-107.4889-107.4865-107.4864-107.4470-107.4441-107.4431
  -107.4428-107.4416-107.4414-107.4408-107.4397-107.4397 -65.1623 -65.1551
   -65.1518 -65.1508 -65.1500 -65.1495 -65.1487 -65.1479 -65.1461 -65.1455
   -65.1441 -65.1438 -65.1429 -65.1423 -65.1390 -65.1380 -65.1368 -65.1354
   -65.1342 -65.1341 -65.1327 -65.1325 -65.1323 -65.1315 -65.1303 -65.1301
   -65.1294 -65.1281 -65.1250 -65.1247 -65.1233 -65.1222 -65.1221 -65.1214
   -65.1209 -65.1197 -65.1196 -65.1181 -65.1171 -65.1168 -65.1151 -65.1148
   -65.1132 -65.1116 -65.1115 -65.1108 -65.1104 -65.1102 -65.1090 -65.1087
   -65.1074 -65.1070 -65.1063 -65.1058 -65.1054 -65.1041 -65.1036 -65.1036
   -65.1019 -65.1017 -65.1012 -65.1011 -65.1005 -65.1000 -65.0988 -65.0981
   -65.0967 -65.0964 -65.0959 -65.0953 -65.0945 -65.0943 -65.0939 -65.0935
   -65.0932 -65.0927 -65.0923 -65.0916 -65.0912 -65.0906 -65.0905 -65.0898
   -65.0894 -65.0884 -65.0882 -65.0872 -65.0869 -65.0865 -65.0861 -65.0857
   -65.0852 -65.0839 -65.0830 -65.0824 -65.0822 -65.0796 -65.0796 -65.0795
   -65.0781 -65.0773 -65.0758 -65.0755 -65.0751 -65.0747 -65.0723 -65.0717
   -65.0685 -65.0655 -64.9932 -64.9919 -64.9911 -64.9789 -64.9695 -64.9673
   -64.9598 -64.9555 -64.9545 -64.9390 -64.9363 -64.9334 -64.9311 -64.9311
   -64.9289 -64.9283 -64.9251 -64.9227 -64.9142 -64.9132 -64.9078 -64.9075
   -64.9070 -64.9065 -64.9062 -64.9048 -64.8947 -64.8943 -64.8904 -64.8889
   -64.8886 -64.8881 -64.8880 -64.8858 -64.8705 -64.8703 -64.8693 -64.8679
   -64.8664 -64.8660 -64.8657 -64.8657 -64.8622 -64.8584 -64.8552 -64.8188
   -64.8161 -64.8151 -64.8148 -64.8136 -64.8134 -64.8129 -64.8117 -64.8117
   -13.1087 -10.3492 -10.3467  -6.7358  -6.7275  -4.7750  -3.7620  -3.1567
    -3.1530  -2.8302  -2.2641  -2.2003  -2.1703  -2.1501  -1.6277  -1.4574
    -1.4471  -1.3501  -0.9937  -0.9684  -0.9191  -0.7796  -0.3916  -0.3905
    -0.3194  -0.3147  -0.2454  -0.2224  -0.2079  -0.1794  -0.1068  -0.1056
     0.0271   0.0596   0.0686   0.1641   0.1660   0.1674   0.3289   0.3485
     0.3702   0.4354   0.4367   0.6094   0.6275   0.6614   0.6616   0.6755
     0.6978   0.6978   0.7118   0.7160   0.7513   0.7637   0.7672   0.7688
     0.7783   0.7794   0.8218   0.8219   0.8553   0.8560   0.8834   0.8869
     0.8879   0.9363   0.9415   0.9544   0.9544   0.9722   0.9738   0.9852
     0.9860   1.0075   1.0093   1.0625   1.1230   1.1287   1.1291   1.1491
     1.1530   1.1633   1.1693   1.1943   1.1947   1.2364   1.2396   1.2434
     1.2830   1.3132   1.3140   1.3185   1.3389   1.3536   1.3770   1.3861
     1.4018   1.4108   1.4233   1.4418   1.4567   1.4667   1.4970   1.5174
     1.5197   1.5355   1.5395   1.5520   1.5810   1.5954   1.6075   1.6102
     1.6138   1.6240   1.6603   1.6655   1.6925   1.7220   1.7362   1.7427
     1.7432   1.7562   1.7583   1.7622   1.7925   1.8009   1.8028   1.8153
     1.8162   1.8271   1.8308   1.8354   1.8501   1.8562   1.8566   1.8751
     1.8868   1.8916   1.8926   1.8964   1.9023   1.9105   1.9158   1.9214
     1.9227   1.9287   1.9319   1.9323   1.9546   1.9599   1.9627   1.9726
     1.9739   1.9924   1.9934   1.9974   2.0001   2.0073   2.0080   2.0298
     2.0468   2.0492   2.0607   2.0713   2.0717   2.0742   2.0764   2.0839
     2.1013   2.1024   2.1226   2.1342   2.1376   2.1403   2.1557   2.1565
     2.1714   2.1801   2.1846   2.1863   2.2096   2.2167   2.2174   2.2372
     2.2591   2.2601   2.2906   2.3062   2.3091   2.3111   2.3155   2.3188
     2.3676   2.3899   2.4093   2.4116   2.4166   2.4202   2.4364   2.4376
     2.4674   2.4679   2.4787   2.4805   2.4822   2.4858   2.4992   2.5025
     2.5452   2.5504   2.5554   2.5567   2.5627   2.5866   2.5906   2.5908
     2.5952   2.5969   2.6261   2.6407   2.6425   2.6439   2.6500   2.6596
     2.6689   2.6696   2.6855   2.6892   2.6943   2.6946   2.7052   2.7092
     2.7214   2.7290   2.7770   2.7844   2.7869   2.8105   2.8136   2.8255
     2.8303   2.8313   2.8325   2.8341   2.8448   2.8500   2.8516   2.8636
     2.8639   2.8712   2.8730   2.8974   2.9185   2.9189   2.9206   2.9206
     2.9323   2.9360   2.9479   2.9531   2.9612   2.9624   3.0054   3.0056
     3.0115   3.0119   3.0145   3.0256   3.0290   3.0333   3.0351   3.0387
     3.0424   3.0434   3.0516   3.0518   3.0581   3.0606   3.0680   3.0719
     3.0904   3.0990   3.0999   3.1017   3.1032   3.1063   3.1066   3.1081
     3.1309   3.1391   3.1519   3.1535   3.1551   3.1636   3.1705   3.1769
     3.2109   3.2649   3.3242   3.3844   3.4137   3.4155   3.5136   3.5741
     3.5750   3.8267   3.8676   3.8789   3.8886   3.9379   4.1874   4.4413
     4.5998   4.8415   4.8543   5.0804   5.1729   5.2028   5.2463   5.9435
     5.9456   6.1656   6.2152   6.3165   6.3360   6.3374   6.5258   6.7434
     6.8155   6.9418   7.0014   7.0796   7.1581   7.2985   7.5612   7.8405
     7.8680   7.8861   8.0359   8.1383   8.2956   8.3335   8.3532   8.4520
     8.5277   8.7305   8.8109   8.8151   8.9470   8.9956   9.3091   9.3550
     9.3630   9.4796   9.5690   9.7239   9.8136   9.8575   9.9095   9.9975
    10.0444  10.0858  10.1282  10.2157  10.2801  10.4087  10.5102  10.5164
    10.5732  10.5777  10.6149  10.7290  10.7462  10.8143  10.8478  10.8518
    10.9804  11.0306  11.0412  11.0956  11.1328  11.2895  11.4668  11.4811
    11.5150  11.5577  11.6161  11.7164  11.7744  11.8169  11.8721  12.0122
    12.0787  12.1721  12.2362  12.3182  12.3988  12.4247  12.5063  12.5182
    12.5735  12.6367  12.7179  12.7733  12.8336  12.8402  12.9231  12.9339
    12.9930  13.0808  13.1395  13.1582  13.2182  13.2827  13.3447  13.4066
    13.4400  13.4993

          k = 0.2500 0.1443 0.0000 ( 61417 PWs)   bands (ev):

  -107.7159-107.7071-107.7037-107.7029-107.7017-107.7008-107.7003-107.7002
  -107.6991-107.6985-107.6984-107.6976-107.6976-107.6970-107.6969-107.6968
  -107.6962-107.6950-107.6943-107.6939-107.6930-107.6911-107.6910-107.6889
  -107.6875-107.6869-107.6868-107.6845-107.6829-107.6828-107.6817-107.6814
  -107.6805-107.6801-107.6772-107.6763-107.5441-107.5415-107.5414-107.5091
  -107.5065-107.5065-107.4889-107.4865-107.4864-107.4470-107.4441-107.4431
  -107.4428-107.4416-107.4414-107.4408-107.4397-107.4397 -65.1623 -65.1551
   -65.1518 -65.1508 -65.1500 -65.1495 -65.1487 -65.1479 -65.1461 -65.1455
   -65.1441 -65.1438 -65.1429 -65.1423 -65.1390 -65.1380 -65.1368 -65.1354
   -65.1342 -65.1341 -65.1327 -65.1325 -65.1323 -65.1315 -65.1303 -65.1301
   -65.1294 -65.1281 -65.1250 -65.1247 -65.1233 -65.1222 -65.1221 -65.1214
   -65.1209 -65.1197 -65.1196 -65.1181 -65.1171 -65.1168 -65.1151 -65.1148
   -65.1132 -65.1116 -65.1115 -65.1108 -65.1104 -65.1102 -65.1090 -65.1087
   -65.1074 -65.1070 -65.1063 -65.1058 -65.1054 -65.1041 -65.1036 -65.1036
   -65.1019 -65.1017 -65.1012 -65.1011 -65.1005 -65.1000 -65.0988 -65.0981
   -65.0967 -65.0964 -65.0959 -65.0953 -65.0945 -65.0943 -65.0939 -65.0935
   -65.0932 -65.0927 -65.0923 -65.0917 -65.0912 -65.0906 -65.0905 -65.0898
   -65.0894 -65.0884 -65.0882 -65.0872 -65.0869 -65.0865 -65.0861 -65.0857
   -65.0852 -65.0839 -65.0830 -65.0824 -65.0822 -65.0796 -65.0796 -65.0795
   -65.0781 -65.0773 -65.0758 -65.0755 -65.0751 -65.0747 -65.0723 -65.0717
   -65.0685 -65.0655 -64.9932 -64.9919 -64.9911 -64.9789 -64.9695 -64.9673
   -64.9598 -64.9555 -64.9545 -64.9390 -64.9363 -64.9334 -64.9311 -64.9311
   -64.9289 -64.9283 -64.9251 -64.9227 -64.9142 -64.9132 -64.9078 -64.9075
   -64.9070 -64.9065 -64.9062 -64.9048 -64.8947 -64.8943 -64.8904 -64.8889
   -64.8886 -64.8881 -64.8881 -64.8858 -64.8705 -64.8703 -64.8693 -64.8679
   -64.8664 -64.8660 -64.8657 -64.8657 -64.8622 -64.8584 -64.8552 -64.8188
   -64.8161 -64.8151 -64.8148 -64.8136 -64.8134 -64.8129 -64.8117 -64.8117
   -13.1087 -10.3493 -10.3466  -6.7357  -6.7276  -4.7750  -3.7620  -3.1567
    -3.1530  -2.8302  -2.2642  -2.2003  -2.1702  -2.1501  -1.6277  -1.4574
    -1.4471  -1.3501  -0.9937  -0.9684  -0.9191  -0.7796  -0.3916  -0.3905
    -0.3194  -0.3147  -0.2455  -0.2223  -0.2079  -0.1794  -0.1068  -0.1056
     0.0271   0.0596   0.0686   0.1641   0.1660   0.1674   0.3289   0.3485
     0.3702   0.4354   0.4367   0.6094   0.6275   0.6614   0.6616   0.6755
     0.6978   0.6978   0.7118   0.7160   0.7513   0.7637   0.7672   0.7688
     0.7783   0.7794   0.8218   0.8219   0.8553   0.8560   0.8834   0.8869
     0.8879   0.9363   0.9415   0.9544   0.9544   0.9722   0.9738   0.9852
     0.9860   1.0075   1.0093   1.0625   1.1230   1.1287   1.1291   1.1491
     1.1530   1.1633   1.1693   1.1943   1.1947   1.2364   1.2396   1.2434
     1.2830   1.3132   1.3140   1.3185   1.3389   1.3536   1.3770   1.3861
     1.4018   1.4108   1.4233   1.4418   1.4567   1.4668   1.4970   1.5174
     1.5197   1.5355   1.5395   1.5520   1.5810   1.5954   1.6075   1.6102
     1.6138   1.6240   1.6603   1.6655   1.6925   1.7220   1.7362   1.7427
     1.7432   1.7562   1.7583   1.7622   1.7925   1.8009   1.8028   1.8153
     1.8162   1.8271   1.8308   1.8354   1.8501   1.8562   1.8566   1.8751
     1.8868   1.8916   1.8926   1.8964   1.9023   1.9105   1.9158   1.9214
     1.9227   1.9287   1.9319   1.9323   1.9546   1.9599   1.9627   1.9726
     1.9739   1.9924   1.9934   1.9974   2.0001   2.0073   2.0080   2.0298
     2.0468   2.0492   2.0607   2.0713   2.0717   2.0742   2.0764   2.0839
     2.1013   2.1024   2.1226   2.1342   2.1376   2.1403   2.1557   2.1565
     2.1714   2.1801   2.1846   2.1863   2.2096   2.2167   2.2174   2.2372
     2.2591   2.2601   2.2906   2.3062   2.3091   2.3111   2.3155   2.3188
     2.3676   2.3899   2.4093   2.4116   2.4166   2.4202   2.4364   2.4376
     2.4674   2.4679   2.4787   2.4805   2.4822   2.4858   2.4992   2.5025
     2.5452   2.5504   2.5554   2.5567   2.5627   2.5866   2.5906   2.5908
     2.5952   2.5969   2.6261   2.6407   2.6425   2.6439   2.6500   2.6596
     2.6689   2.6696   2.6855   2.6892   2.6943   2.6946   2.7052   2.7092
     2.7214   2.7290   2.7770   2.7844   2.7869   2.8105   2.8136   2.8255
     2.8303   2.8313   2.8325   2.8341   2.8448   2.8500   2.8516   2.8636
     2.8639   2.8712   2.8730   2.8974   2.9185   2.9189   2.9206   2.9206
     2.9323   2.9360   2.9479   2.9531   2.9612   2.9624   3.0054   3.0056
     3.0115   3.0119   3.0145   3.0256   3.0290   3.0333   3.0351   3.0387
     3.0424   3.0434   3.0516   3.0518   3.0581   3.0606   3.0680   3.0719
     3.0904   3.0990   3.0999   3.1017   3.1032   3.1063   3.1066   3.1081
     3.1309   3.1391   3.1519   3.1535   3.1551   3.1636   3.1705   3.1769
     3.2109   3.2649   3.3242   3.3844   3.4137   3.4155   3.5136   3.5741
     3.5750   3.8267   3.8676   3.8789   3.8886   3.9379   4.1874   4.4413
     4.5998   4.8415   4.8543   5.0804   5.1729   5.2028   5.2463   5.9435
     5.9456   6.1656   6.2152   6.3165   6.3360   6.3374   6.5258   6.7434
     6.8155   6.9418   7.0014   7.0796   7.1581   7.2985   7.5612   7.8405
     7.8680   7.8861   8.0359   8.1383   8.2956   8.3335   8.3532   8.4520
     8.5277   8.7305   8.8109   8.8151   8.9470   8.9956   9.3091   9.3550
     9.3630   9.4796   9.5690   9.7239   9.8136   9.8575   9.9095   9.9975
    10.0444  10.0858  10.1282  10.2157  10.2801  10.4087  10.5102  10.5164
    10.5732  10.5778  10.6149  10.7290  10.7462  10.8143  10.8478  10.8518
    10.9804  11.0306  11.0413  11.0956  11.1328  11.2895  11.4668  11.4811
    11.5150  11.5577  11.6161  11.7164  11.7745  11.8169  11.8721  12.0122
    12.0787  12.1721  12.2362  12.3182  12.3988  12.4247  12.5063  12.5182
    12.5735  12.6367  12.7179  12.7733  12.8336  12.8401  12.9231  12.9339
    12.9930  13.0808  13.1395  13.1582  13.2182  13.2827  13.3447  13.4066
    13.4400  13.4993

          k = 0.5000-0.2887 0.0000 ( 61408 PWs)   bands (ev):

  -107.7159-107.7064-107.7048-107.7031-107.7019-107.7005-107.6998-107.6997
  -107.6996-107.6982-107.6982-107.6981-107.6977-107.6970-107.6967-107.6964
  -107.6963-107.6950-107.6949-107.6939-107.6931-107.6910-107.6908-107.6889
  -107.6873-107.6870-107.6867-107.6848-107.6833-107.6830-107.6816-107.6807
  -107.6806-107.6803-107.6772-107.6763-107.5441-107.5415-107.5414-107.5092
  -107.5065-107.5065-107.4890-107.4865-107.4864-107.4461-107.4455-107.4433
  -107.4431-107.4411-107.4409-107.4405-107.4400-107.4399 -65.1603 -65.1569
   -65.1547 -65.1535 -65.1516 -65.1498 -65.1489 -65.1483 -65.1472 -65.1469
   -65.1464 -65.1460 -65.1455 -65.1445 -65.1419 -65.1388 -65.1357 -65.1355
   -65.1353 -65.1345 -65.1339 -65.1334 -65.1334 -65.1330 -65.1313 -65.1302
   -65.1298 -65.1285 -65.1246 -65.1230 -65.1223 -65.1222 -65.1216 -65.1205
   -65.1198 -65.1170 -65.1159 -65.1150 -65.1132 -65.1128 -65.1127 -65.1124
   -65.1117 -65.1107 -65.1101 -65.1100 -65.1094 -65.1079 -65.1077 -65.1064
   -65.1057 -65.1052 -65.1051 -65.1047 -65.1040 -65.1039 -65.1024 -65.1021
   -65.1006 -65.0998 -65.0992 -65.0990 -65.0983 -65.0980 -65.0977 -65.0977
   -65.0975 -65.0972 -65.0967 -65.0956 -65.0949 -65.0944 -65.0937 -65.0932
   -65.0932 -65.0922 -65.0916 -65.0909 -65.0906 -65.0904 -65.0903 -65.0893
   -65.0892 -65.0886 -65.0879 -65.0877 -65.0875 -65.0869 -65.0866 -65.0863
   -65.0856 -65.0852 -65.0847 -65.0831 -65.0824 -65.0821 -65.0821 -65.0805
   -65.0796 -65.0793 -65.0790 -65.0773 -65.0770 -65.0758 -65.0756 -65.0742
   -65.0690 -65.0674 -64.9955 -64.9931 -64.9921 -64.9795 -64.9682 -64.9645
   -64.9619 -64.9517 -64.9512 -64.9411 -64.9352 -64.9334 -64.9311 -64.9311
   -64.9297 -64.9289 -64.9231 -64.9197 -64.9174 -64.9161 -64.9111 -64.9100
   -64.9097 -64.9093 -64.9090 -64.9054 -64.8910 -64.8907 -64.8904 -64.8881
   -64.8880 -64.8788 -64.8786 -64.8784 -64.8779 -64.8704 -64.8704 -64.8697
   -64.8680 -64.8673 -64.8670 -64.8657 -64.8656 -64.8585 -64.8579 -64.8179
   -64.8172 -64.8153 -64.8150 -64.8131 -64.8131 -64.8127 -64.8119 -64.8118
   -13.1079 -10.3527 -10.3474  -6.7390  -6.7228  -4.7464  -3.1388  -3.1373
    -3.1242  -2.8341  -2.5558  -2.5516  -2.2598  -2.1784  -1.7287  -1.6295
    -1.6037  -1.6026  -1.2248  -1.0979  -1.0587  -0.5805  -0.5010  -0.3849
    -0.3701  -0.2824  -0.2221   0.0096   0.1747   0.1940   0.2124   0.2132
     0.2141   0.2154   0.2183   0.2983   0.3521   0.3772   0.3786   0.3913
     0.3927   0.4108   0.4111   0.4123   0.4125   0.4640   0.4642   0.4659
     0.4659   0.5953   0.6246   0.6249   0.6298   0.6300   0.6471   0.7077
     0.8075   0.8083   0.8105   0.8109   0.8145   0.8292   0.8473   0.8524
     0.8551   0.8599   0.8601   0.9802   0.9810   0.9839   0.9840   1.0013
     1.0072   1.0816   1.0839   1.0891   1.0986   1.0991   1.1431   1.1441
     1.1842   1.1859   1.2267   1.2292   1.2497   1.2499   1.2827   1.3106
     1.3168   1.3187   1.3506   1.3512   1.3615   1.3639   1.3742   1.3887
     1.3896   1.4199   1.4271   1.4713   1.4780   1.4894   1.4958   1.5158
     1.5204   1.5310   1.5386   1.5441   1.5443   1.5537   1.5587   1.6009
     1.6010   1.6026   1.6048   1.6101   1.6241   1.6629   1.6667   1.6770
     1.6777   1.6795   1.6813   1.6848   1.6876   1.7057   1.7299   1.7700
     1.7775   1.7796   1.7846   1.7920   1.8130   1.8278   1.8287   1.8302
     1.8314   1.8340   1.8421   1.8806   1.8871   1.8920   1.8961   1.9003
     1.9080   1.9089   1.9368   1.9409   1.9445   1.9476   1.9687   1.9707
     1.9723   1.9767   1.9778   1.9956   1.9967   2.0014   2.0057   2.0256
     2.0303   2.0550   2.0681   2.0699   2.1205   2.1224   2.1323   2.1341
     2.1346   2.1361   2.1362   2.1367   2.1411   2.1491   2.1562   2.1579
     2.1648   2.1758   2.1772   2.1823   2.1823   2.1872   2.1874   2.2579
     2.2603   2.2644   2.2748   2.3275   2.3283   2.3358   2.3373   2.3411
     2.3461   2.3474   2.3556   2.3598   2.3646   2.3743   2.3885   2.4066
     2.4154   2.4176   2.4209   2.4245   2.4382   2.4470   2.4477   2.4490
     2.4513   2.4638   2.4679   2.4712   2.4744   2.4878   2.4882   2.5737
     2.5760   2.6009   2.6032   2.6266   2.6275   2.6313   2.6328   2.6580
     2.6592   2.6702   2.6857   2.6948   2.7030   2.7052   2.7096   2.7236
     2.7266   2.7414   2.7432   2.7451   2.7472   2.7586   2.7669   2.7740
     2.7789   2.7823   2.7930   2.8317   2.8318   2.8364   2.8372   2.8475
     2.8476   2.8619   2.8677   2.8926   2.8955   2.9090   2.9130   2.9306
     2.9309   2.9503   2.9578   2.9679   2.9750   3.0094   3.0103   3.0306
     3.0368   3.0381   3.0426   3.0609   3.0675   3.0682   3.0695   3.0704
     3.0722   3.0783   3.1000   3.1005   3.1012   3.1013   3.1020   3.1161
     3.1185   3.1222   3.1335   3.1400   3.1511   3.1553   3.1613   3.1629
     3.1637   3.1784   3.1843   3.2041   3.2060   3.2182   3.2190   3.2218
     3.2220   3.2862   3.3447   3.8399   3.8915   3.9030   3.9299   4.3744
     4.4288   4.4298   4.4299   4.4307   4.6878   4.6936   4.6957   4.6969
     5.0098   5.0400   5.0976   5.1734   5.2169   5.2369   5.2575   5.2786
     5.2999   5.5289   5.8619   6.1001   6.1092   6.1301   6.1991   6.2304
     6.2358   6.2779   6.2933   6.6551   6.7949   6.9001   7.0171   7.5249
     7.5398   7.5486   7.7527   7.8258   7.9834   8.3142   8.4063   8.4195
     8.6601   8.6704   8.6787   8.7240   8.9319   8.9863   9.0248   9.2082
     9.3052   9.3195   9.3281   9.3413   9.4492   9.5594   9.6278   9.7592
     9.8271   9.9353   9.9481   9.9955  10.0405  10.2524  10.3124  10.4005
    10.4162  10.5018  10.5938  10.6248  10.6458  10.7919  10.8857  11.0211
    11.0457  11.1124  11.2555  11.2887  11.2963  11.4269  11.4618  11.5027
    11.6768  11.7240  11.7936  12.0221  12.1468  12.1811  12.3216  12.3590
    12.3683  12.3829  12.4248  12.6542  12.6888  12.8151  12.8461  12.9285
    12.9777  13.0406  13.1162  13.1393  13.2152  13.3014  13.3103  13.3164
    13.3723  13.3787  13.3874  13.4267  13.6297  13.6455  13.6613  13.7235
    13.8374  13.8395

          k =-0.5000-0.2887 0.0000 ( 61408 PWs)   bands (ev):

  -107.7159-107.7064-107.7048-107.7031-107.7019-107.7005-107.6998-107.6997
  -107.6996-107.6982-107.6982-107.6981-107.6977-107.6970-107.6967-107.6964
  -107.6963-107.6950-107.6949-107.6939-107.6931-107.6910-107.6908-107.6889
  -107.6873-107.6870-107.6867-107.6848-107.6833-107.6830-107.6816-107.6807
  -107.6807-107.6803-107.6772-107.6763-107.5441-107.5415-107.5414-107.5092
  -107.5065-107.5065-107.4890-107.4865-107.4864-107.4461-107.4455-107.4433
  -107.4431-107.4411-107.4409-107.4405-107.4400-107.4399 -65.1603 -65.1569
   -65.1547 -65.1535 -65.1516 -65.1498 -65.1489 -65.1483 -65.1472 -65.1469
   -65.1464 -65.1460 -65.1455 -65.1445 -65.1419 -65.1388 -65.1357 -65.1355
   -65.1353 -65.1345 -65.1339 -65.1334 -65.1334 -65.1330 -65.1313 -65.1302
   -65.1298 -65.1285 -65.1246 -65.1230 -65.1223 -65.1222 -65.1216 -65.1205
   -65.1198 -65.1170 -65.1159 -65.1150 -65.1132 -65.1128 -65.1127 -65.1124
   -65.1117 -65.1107 -65.1101 -65.1100 -65.1094 -65.1079 -65.1077 -65.1064
   -65.1057 -65.1052 -65.1051 -65.1047 -65.1040 -65.1040 -65.1024 -65.1021
   -65.1006 -65.0998 -65.0992 -65.0990 -65.0983 -65.0980 -65.0977 -65.0977
   -65.0975 -65.0972 -65.0967 -65.0956 -65.0949 -65.0944 -65.0937 -65.0932
   -65.0932 -65.0922 -65.0916 -65.0909 -65.0906 -65.0904 -65.0903 -65.0893
   -65.0892 -65.0886 -65.0879 -65.0877 -65.0875 -65.0869 -65.0866 -65.0863
   -65.0856 -65.0852 -65.0847 -65.0831 -65.0824 -65.0821 -65.0821 -65.0805
   -65.0796 -65.0793 -65.0790 -65.0773 -65.0770 -65.0758 -65.0756 -65.0742
   -65.0690 -65.0674 -64.9955 -64.9931 -64.9921 -64.9795 -64.9682 -64.9645
   -64.9619 -64.9517 -64.9512 -64.9411 -64.9352 -64.9334 -64.9311 -64.9311
   -64.9297 -64.9289 -64.9231 -64.9197 -64.9174 -64.9161 -64.9111 -64.9100
   -64.9097 -64.9093 -64.9090 -64.9054 -64.8910 -64.8907 -64.8904 -64.8881
   -64.8880 -64.8788 -64.8786 -64.8784 -64.8779 -64.8704 -64.8704 -64.8697
   -64.8680 -64.8673 -64.8670 -64.8657 -64.8656 -64.8585 -64.8579 -64.8179
   -64.8172 -64.8153 -64.8150 -64.8131 -64.8131 -64.8127 -64.8119 -64.8118
   -13.1079 -10.3528 -10.3474  -6.7390  -6.7229  -4.7464  -3.1388  -3.1373
    -3.1242  -2.8341  -2.5558  -2.5516  -2.2599  -2.1784  -1.7287  -1.6295
    -1.6037  -1.6026  -1.2248  -1.0979  -1.0587  -0.5805  -0.5010  -0.3849
    -0.3701  -0.2825  -0.2220   0.0096   0.1747   0.1940   0.2124   0.2132
     0.2141   0.2154   0.2183   0.2983   0.3521   0.3772   0.3786   0.3913
     0.3927   0.4108   0.4111   0.4123   0.4125   0.4640   0.4642   0.4659
     0.4659   0.5953   0.6246   0.6249   0.6298   0.6300   0.6471   0.7077
     0.8075   0.8083   0.8105   0.8109   0.8145   0.8292   0.8473   0.8524
     0.8551   0.8599   0.8601   0.9802   0.9810   0.9839   0.9840   1.0013
     1.0072   1.0816   1.0839   1.0891   1.0986   1.0991   1.1431   1.1441
     1.1842   1.1859   1.2267   1.2292   1.2497   1.2499   1.2827   1.3106
     1.3168   1.3187   1.3506   1.3512   1.3615   1.3639   1.3742   1.3887
     1.3896   1.4199   1.4271   1.4713   1.4780   1.4894   1.4958   1.5158
     1.5204   1.5310   1.5386   1.5441   1.5443   1.5537   1.5587   1.6009
     1.6010   1.6026   1.6048   1.6101   1.6241   1.6629   1.6667   1.6770
     1.6777   1.6795   1.6813   1.6848   1.6876   1.7057   1.7299   1.7700
     1.7775   1.7796   1.7846   1.7920   1.8130   1.8278   1.8287   1.8302
     1.8314   1.8340   1.8421   1.8806   1.8871   1.8920   1.8961   1.9003
     1.9080   1.9089   1.9368   1.9409   1.9445   1.9476   1.9687   1.9707
     1.9723   1.9767   1.9778   1.9956   1.9967   2.0014   2.0057   2.0256
     2.0303   2.0550   2.0681   2.0699   2.1205   2.1224   2.1323   2.1341
     2.1346   2.1361   2.1362   2.1367   2.1411   2.1491   2.1562   2.1579
     2.1648   2.1758   2.1772   2.1823   2.1823   2.1872   2.1874   2.2579
     2.2603   2.2644   2.2748   2.3275   2.3283   2.3358   2.3373   2.3411
     2.3461   2.3474   2.3556   2.3598   2.3646   2.3743   2.3885   2.4066
     2.4154   2.4176   2.4209   2.4245   2.4382   2.4470   2.4477   2.4490
     2.4513   2.4638   2.4679   2.4712   2.4744   2.4878   2.4882   2.5737
     2.5760   2.6009   2.6032   2.6266   2.6275   2.6313   2.6328   2.6580
     2.6592   2.6702   2.6857   2.6948   2.7030   2.7052   2.7096   2.7236
     2.7266   2.7414   2.7432   2.7451   2.7472   2.7586   2.7669   2.7739
     2.7789   2.7823   2.7930   2.8317   2.8318   2.8364   2.8372   2.8475
     2.8476   2.8619   2.8677   2.8926   2.8955   2.9090   2.9130   2.9306
     2.9309   2.9503   2.9578   2.9679   2.9750   3.0094   3.0103   3.0306
     3.0368   3.0381   3.0426   3.0609   3.0675   3.0682   3.0695   3.0704
     3.0722   3.0782   3.1000   3.1005   3.1012   3.1013   3.1020   3.1161
     3.1185   3.1222   3.1335   3.1400   3.1511   3.1553   3.1613   3.1629
     3.1637   3.1784   3.1843   3.2041   3.2060   3.2182   3.2190   3.2218
     3.2220   3.2862   3.3447   3.8399   3.8915   3.9030   3.9299   4.3744
     4.4288   4.4298   4.4299   4.4307   4.6878   4.6936   4.6957   4.6969
     5.0098   5.0400   5.0976   5.1734   5.2169   5.2369   5.2575   5.2786
     5.2999   5.5289   5.8619   6.1001   6.1092   6.1301   6.1991   6.2304
     6.2358   6.2779   6.2933   6.6551   6.7949   6.9001   7.0171   7.5249
     7.5398   7.5486   7.7527   7.8258   7.9834   8.3142   8.4063   8.4195
     8.6601   8.6704   8.6787   8.7240   8.9319   8.9863   9.0248   9.2082
     9.3052   9.3195   9.3281   9.3413   9.4491   9.5593   9.6278   9.7592
     9.8271   9.9353   9.9481   9.9955  10.0405  10.2524  10.3124  10.4005
    10.4162  10.5018  10.5938  10.6248  10.6458  10.7919  10.8857  11.0211
    11.0457  11.1124  11.2555  11.2886  11.2963  11.4269  11.4618  11.5027
    11.6768  11.7240  11.7937  12.0221  12.1468  12.1811  12.3215  12.3591
    12.3684  12.3829  12.4248  12.6542  12.6888  12.8151  12.8461  12.9285
    12.9777  13.0406  13.1162  13.1393  13.2152  13.3014  13.3103  13.3164
    13.3723  13.3787  13.3874  13.4267  13.6297  13.6455  13.6615  13.7233
    13.8393  13.8726

          k =-0.2500-0.7217 0.0000 ( 61343 PWs)   bands (ev):

  -107.7159-107.7064-107.7044-107.7038-107.7013-107.7006-107.7000-107.6996
  -107.6994-107.6988-107.6983-107.6980-107.6974-107.6970-107.6968-107.6964
  -107.6963-107.6950-107.6947-107.6943-107.6929-107.6910-107.6908-107.6889
  -107.6873-107.6869-107.6867-107.6847-107.6837-107.6826-107.6814-107.6811
  -107.6805-107.6803-107.6772-107.6763-107.5441-107.5415-107.5414-107.5092
  -107.5065-107.5065-107.4890-107.4865-107.4864-107.4463-107.4448-107.4444
  -107.4421-107.4414-107.4409-107.4406-107.4400-107.4398 -65.1605 -65.1560
   -65.1535 -65.1532 -65.1520 -65.1519 -65.1509 -65.1496 -65.1486 -65.1464
   -65.1461 -65.1452 -65.1423 -65.1414 -65.1404 -65.1394 -65.1393 -65.1376
   -65.1364 -65.1340 -65.1335 -65.1331 -65.1325 -65.1315 -65.1307 -65.1305
   -65.1292 -65.1283 -65.1265 -65.1254 -65.1234 -65.1210 -65.1206 -65.1197
   -65.1179 -65.1173 -65.1168 -65.1157 -65.1155 -65.1136 -65.1129 -65.1122
   -65.1120 -65.1110 -65.1101 -65.1098 -65.1080 -65.1069 -65.1064 -65.1059
   -65.1055 -65.1053 -65.1051 -65.1040 -65.1037 -65.1030 -65.1026 -65.1017
   -65.1012 -65.1005 -65.0998 -65.0997 -65.0992 -65.0984 -65.0975 -65.0970
   -65.0966 -65.0959 -65.0956 -65.0953 -65.0947 -65.0944 -65.0936 -65.0935
   -65.0934 -65.0927 -65.0921 -65.0916 -65.0913 -65.0902 -65.0901 -65.0898
   -65.0892 -65.0890 -65.0884 -65.0878 -65.0876 -65.0874 -65.0872 -65.0868
   -65.0858 -65.0846 -65.0842 -65.0832 -65.0825 -65.0819 -65.0815 -65.0812
   -65.0803 -65.0790 -65.0786 -65.0777 -65.0773 -65.0759 -65.0734 -65.0718
   -65.0712 -65.0676 -64.9948 -64.9937 -64.9924 -64.9788 -64.9695 -64.9642
   -64.9601 -64.9542 -64.9508 -64.9409 -64.9338 -64.9333 -64.9311 -64.9310
   -64.9303 -64.9274 -64.9252 -64.9208 -64.9156 -64.9153 -64.9149 -64.9123
   -64.9096 -64.9061 -64.9057 -64.9019 -64.9015 -64.8904 -64.8881 -64.8880
   -64.8823 -64.8803 -64.8793 -64.8792 -64.8738 -64.8734 -64.8728 -64.8724
   -64.8680 -64.8661 -64.8657 -64.8656 -64.8616 -64.8614 -64.8574 -64.8181
   -64.8167 -64.8162 -64.8142 -64.8134 -64.8130 -64.8128 -64.8119 -64.8117
   -13.1079 -10.3515 -10.3487  -6.7348  -6.7270  -4.7466  -3.3425  -3.1256
    -2.8339  -2.7495  -2.5390  -2.5364  -2.2492  -2.2058  -1.9872  -1.9590
    -1.8482  -1.3293  -1.1122  -1.0114  -0.6671  -0.5251  -0.5229  -0.2958
    -0.2459  -0.1779  -0.1733  -0.1338  -0.1096   0.0668   0.0669   0.0769
     0.2331   0.2391   0.2617   0.2622   0.2770   0.3280   0.3367   0.3378
     0.3569   0.4559   0.4568   0.4582   0.4595   0.5167   0.5319   0.5917
     0.5991   0.6086   0.6200   0.6512   0.6514   0.6523   0.6693   0.6710
     0.7178   0.7230   0.7630   0.7663   0.7935   0.7939   0.8250   0.8284
     0.8326   0.8860   0.8885   0.9188   0.9404   0.9603   0.9614   1.0199
     1.0350   1.0842   1.1021   1.1059   1.1199   1.1257   1.1794   1.1830
     1.1996   1.2163   1.2175   1.2204   1.2667   1.2815   1.2923   1.3020
     1.3160   1.3430   1.3466   1.3621   1.3675   1.3866   1.3876   1.3984
     1.4131   1.4431   1.4490   1.4500   1.4513   1.4618   1.4756   1.4852
     1.4876   1.5034   1.5059   1.5333   1.5394   1.5463   1.5582   1.5752
     1.5787   1.5979   1.6395   1.6438   1.6444   1.6521   1.6602   1.6733
     1.6918   1.6994   1.7166   1.7355   1.7370   1.7446   1.7480   1.7517
     1.7727   1.7889   1.7915   1.7918   1.7925   1.8308   1.8369   1.8414
     1.8439   1.8479   1.8559   1.8692   1.8715   1.8891   1.8905   1.8996
     1.9011   1.9194   1.9308   1.9405   1.9579   1.9680   1.9720   1.9779
     1.9809   1.9888   1.9926   1.9951   2.0042   2.0047   2.0145   2.0181
     2.0225   2.0324   2.0375   2.0463   2.0662   2.0693   2.0790   2.0846
     2.1030   2.1044   2.1057   2.1094   2.1109   2.1162   2.1170   2.1211
     2.1218   2.1285   2.1845   2.1853   2.2404   2.2492   2.2513   2.2539
     2.2583   2.2623   2.2791   2.2818   2.3061   2.3114   2.3193   2.3312
     2.3473   2.3499   2.3857   2.3879   2.3921   2.4177   2.4198   2.4214
     2.4221   2.4227   2.4276   2.4289   2.4318   2.4417   2.4596   2.4625
     2.4883   2.4989   2.5086   2.5093   2.5158   2.5237   2.5335   2.5536
     2.5582   2.5649   2.5751   2.5874   2.5932   2.6101   2.6262   2.6269
     2.6382   2.6427   2.6638   2.6713   2.6773   2.6927   2.7105   2.7158
     2.7298   2.7339   2.7371   2.7535   2.7610   2.7743   2.7824   2.7856
     2.7883   2.7919   2.7937   2.7973   2.8060   2.8136   2.8328   2.8509
     2.8716   2.8753   2.8767   2.8905   2.9244   2.9268   2.9404   2.9498
     2.9706   2.9854   2.9897   2.9940   2.9965   2.9991   3.0064   3.0378
     3.0416   3.0427   3.0458   3.0503   3.0584   3.0610   3.0639   3.0650
     3.0706   3.0718   3.0740   3.0757   3.0801   3.0904   3.0935   3.1035
     3.1055   3.1168   3.1176   3.1274   3.1354   3.1440   3.1516   3.1594
     3.1607   3.1769   3.1931   3.1974   3.2186   3.2384   3.2400   3.4048
     3.4279   3.5067   3.5074   3.6013   3.6050   3.7396   3.9249   3.9373
     4.3212   4.3659   4.4121   4.4153   4.4325   4.6879   4.7784   4.8096
     4.8187   4.8236   5.0130   5.2507   5.2817   5.2885   5.7418   5.7644
     5.8085   5.9544   5.9916   6.0203   6.0356   6.1799   6.1883   6.2410
     6.3386   6.6483   6.6995   6.7553   6.9115   6.9618   7.0561   7.1205
     7.1521   7.2052   7.2474   7.4892   7.6965   7.7323   8.0083   8.0485
     8.4563   8.5933   8.5999   8.7031   8.7513   8.8911   9.1482   9.1856
     9.2646   9.3565   9.3936   9.5235   9.5637   9.6079   9.7479   9.7807
     9.8253  10.0115  10.0744  10.1463  10.1998  10.4010  10.4163  10.5106
    10.5490  10.6518  10.8267  10.8980  10.9660  11.0122  11.1073  11.1934
    11.2117  11.2908  11.4301  11.5721  11.5845  11.6395  11.6501  11.7325
    11.7927  11.8923  11.9267  11.9584  11.9900  12.0844  12.1362  12.2187
    12.3127  12.3906  12.4871  12.5079  12.5739  12.6285  12.6790  12.7225
    12.7397  12.8115  12.8345  12.8939  12.9629  13.0997  13.1461  13.1933
    13.3217  13.3542  13.3935  13.4316  13.5175  13.5793  13.6294  13.6839
    13.7323  13.7540

          k =-0.5000-0.5774 0.0000 ( 61343 PWs)   bands (ev):

  -107.7159-107.7064-107.7043-107.7038-107.7013-107.7006-107.7000-107.6996
  -107.6994-107.6988-107.6983-107.6980-107.6974-107.6970-107.6968-107.6964
  -107.6963-107.6950-107.6947-107.6943-107.6929-107.6910-107.6908-107.6889
  -107.6873-107.6869-107.6867-107.6847-107.6837-107.6826-107.6814-107.6811
  -107.6805-107.6803-107.6772-107.6763-107.5441-107.5415-107.5414-107.5092
  -107.5065-107.5065-107.4890-107.4865-107.4864-107.4463-107.4448-107.4444
  -107.4421-107.4414-107.4409-107.4406-107.4400-107.4398 -65.1605 -65.1560
   -65.1535 -65.1532 -65.1520 -65.1519 -65.1509 -65.1496 -65.1486 -65.1464
   -65.1461 -65.1452 -65.1423 -65.1414 -65.1404 -65.1394 -65.1393 -65.1376
   -65.1364 -65.1340 -65.1335 -65.1331 -65.1325 -65.1315 -65.1307 -65.1305
   -65.1292 -65.1283 -65.1265 -65.1254 -65.1234 -65.1210 -65.1206 -65.1197
   -65.1179 -65.1173 -65.1168 -65.1157 -65.1155 -65.1136 -65.1129 -65.1122
   -65.1120 -65.1110 -65.1101 -65.1098 -65.1080 -65.1069 -65.1064 -65.1059
   -65.1055 -65.1053 -65.1051 -65.1040 -65.1037 -65.1030 -65.1026 -65.1017
   -65.1012 -65.1005 -65.0998 -65.0997 -65.0992 -65.0984 -65.0975 -65.0970
   -65.0966 -65.0959 -65.0956 -65.0953 -65.0947 -65.0945 -65.0936 -65.0935
   -65.0934 -65.0927 -65.0921 -65.0916 -65.0913 -65.0902 -65.0901 -65.0898
   -65.0892 -65.0890 -65.0884 -65.0878 -65.0876 -65.0874 -65.0872 -65.0868
   -65.0858 -65.0846 -65.0842 -65.0832 -65.0825 -65.0819 -65.0815 -65.0812
   -65.0803 -65.0790 -65.0786 -65.0777 -65.0773 -65.0758 -65.0734 -65.0718
   -65.0712 -65.0676 -64.9948 -64.9937 -64.9924 -64.9788 -64.9695 -64.9642
   -64.9601 -64.9542 -64.9508 -64.9409 -64.9338 -64.9333 -64.9311 -64.9310
   -64.9303 -64.9274 -64.9252 -64.9207 -64.9156 -64.9153 -64.9149 -64.9123
   -64.9096 -64.9061 -64.9057 -64.9019 -64.9015 -64.8904 -64.8881 -64.8880
   -64.8823 -64.8803 -64.8793 -64.8792 -64.8738 -64.8734 -64.8728 -64.8724
   -64.8680 -64.8661 -64.8657 -64.8656 -64.8616 -64.8614 -64.8574 -64.8181
   -64.8167 -64.8162 -64.8142 -64.8134 -64.8130 -64.8128 -64.8119 -64.8117
   -13.1079 -10.3513 -10.3488  -6.7351  -6.7267  -4.7466  -3.3425  -3.1256
    -2.8339  -2.7495  -2.5390  -2.5364  -2.2492  -2.2058  -1.9872  -1.9590
    -1.8482  -1.3293  -1.1122  -1.0114  -0.6671  -0.5251  -0.5229  -0.2957
    -0.2460  -0.1779  -0.1733  -0.1338  -0.1096   0.0668   0.0669   0.0769
     0.2331   0.2391   0.2617   0.2622   0.2770   0.3280   0.3367   0.3378
     0.3569   0.4559   0.4568   0.4582   0.4595   0.5167   0.5319   0.5917
     0.5992   0.6086   0.6200   0.6512   0.6514   0.6523   0.6693   0.6710
     0.7178   0.7231   0.7630   0.7663   0.7935   0.7939   0.8250   0.8284
     0.8326   0.8860   0.8885   0.9188   0.9404   0.9603   0.9614   1.0199
     1.0350   1.0842   1.1021   1.1059   1.1199   1.1257   1.1794   1.1830
     1.1996   1.2163   1.2175   1.2204   1.2667   1.2815   1.2923   1.3020
     1.3160   1.3430   1.3466   1.3621   1.3675   1.3866   1.3876   1.3984
     1.4131   1.4431   1.4490   1.4500   1.4513   1.4618   1.4757   1.4852
     1.4876   1.5034   1.5059   1.5333   1.5394   1.5464   1.5582   1.5752
     1.5787   1.5979   1.6395   1.6438   1.6444   1.6521   1.6602   1.6733
     1.6918   1.6994   1.7166   1.7355   1.7370   1.7446   1.7479   1.7517
     1.7727   1.7889   1.7915   1.7918   1.7925   1.8308   1.8369   1.8414
     1.8439   1.8479   1.8559   1.8692   1.8715   1.8891   1.8905   1.8996
     1.9011   1.9194   1.9308   1.9405   1.9579   1.9680   1.9720   1.9779
     1.9809   1.9888   1.9926   1.9951   2.0042   2.0047   2.0145   2.0181
     2.0225   2.0324   2.0375   2.0463   2.0662   2.0693   2.0790   2.0846
     2.1030   2.1044   2.1057   2.1094   2.1109   2.1162   2.1170   2.1211
     2.1218   2.1285   2.1845   2.1853   2.2404   2.2493   2.2513   2.2539
     2.2583   2.2623   2.2791   2.2818   2.3061   2.3114   2.3193   2.3312
     2.3473   2.3499   2.3857   2.3879   2.3921   2.4177   2.4198   2.4214
     2.4221   2.4227   2.4276   2.4289   2.4318   2.4417   2.4596   2.4625
     2.4883   2.4989   2.5086   2.5093   2.5158   2.5237   2.5335   2.5536
     2.5582   2.5649   2.5751   2.5874   2.5932   2.6101   2.6262   2.6269
     2.6382   2.6427   2.6638   2.6713   2.6773   2.6927   2.7105   2.7158
     2.7298   2.7339   2.7371   2.7535   2.7610   2.7743   2.7824   2.7856
     2.7884   2.7919   2.7937   2.7973   2.8060   2.8136   2.8328   2.8509
     2.8716   2.8753   2.8767   2.8905   2.9244   2.9268   2.9404   2.9498
     2.9706   2.9854   2.9897   2.9940   2.9965   2.9991   3.0064   3.0378
     3.0416   3.0427   3.0458   3.0503   3.0584   3.0610   3.0639   3.0650
     3.0706   3.0718   3.0740   3.0757   3.0801   3.0904   3.0935   3.1035
     3.1055   3.1168   3.1176   3.1274   3.1354   3.1440   3.1516   3.1594
     3.1607   3.1769   3.1931   3.1974   3.2186   3.2384   3.2400   3.4048
     3.4280   3.5067   3.5074   3.6013   3.6050   3.7396   3.9249   3.9373
     4.3212   4.3659   4.4121   4.4153   4.4325   4.6879   4.7784   4.8096
     4.8187   4.8236   5.0130   5.2507   5.2817   5.2885   5.7418   5.7644
     5.8085   5.9544   5.9916   6.0203   6.0356   6.1799   6.1883   6.2410
     6.3386   6.6483   6.6994   6.7553   6.9114   6.9618   7.0561   7.1206
     7.1522   7.2052   7.2475   7.4892   7.6965   7.7322   8.0083   8.0485
     8.4562   8.5933   8.5999   8.7031   8.7513   8.8912   9.1481   9.1856
     9.2646   9.3565   9.3936   9.5235   9.5637   9.6079   9.7479   9.7808
     9.8253  10.0114  10.0744  10.1463  10.1998  10.4010  10.4163  10.5106
    10.5489  10.6518  10.8267  10.8981  10.9660  11.0122  11.1074  11.1934
    11.2117  11.2909  11.4302  11.5721  11.5845  11.6395  11.6502  11.7324
    11.7927  11.8923  11.9267  11.9584  11.9900  12.0844  12.1362  12.2187
    12.3128  12.3906  12.4871  12.5079  12.5739  12.6285  12.6790  12.7225
    12.7397  12.8115  12.8345  12.8939  12.9628  13.0997  13.1461  13.1933
    13.3217  13.3542  13.3935  13.4317  13.5175  13.5793  13.6294  13.6839
    13.7323  13.7540

     the Fermi energy is     4.7368 ev

!    total energy              =  -21903.75052869 Ry
     Harris-Foulkes estimate   =  -21903.75052870 Ry
     estimated scf accuracy    <          2.4E-09 Ry

     The total energy is the sum of the following terms:

     one-electron contribution = -208982.37671644 Ry
     hartree contribution      =  104698.06726276 Ry
     xc contribution           =   -2143.28793702 Ry
     ewald contribution        =   84523.90006030 Ry
     smearing contrib. (-TS)   =      -0.05319829 Ry

     convergence has been achieved in  41 iterations
 
     init_run     :     72.41s CPU     74.49s WALL (       1 calls)
     electrons    :  18675.91s CPU  18987.20s WALL (       1 calls)

     Called by init_run:
     wfcinit      :     61.64s CPU     63.14s WALL (       1 calls)
     potinit      :      7.11s CPU      7.26s WALL (       1 calls)
     hinit0       :      1.89s CPU      1.91s WALL (       1 calls)

     Called by electrons:
     c_bands      :  17541.08s CPU  17808.48s WALL (      41 calls)
     sum_band     :    828.15s CPU    854.99s WALL (      41 calls)
     v_of_rho     :    251.29s CPU    256.54s WALL (      42 calls)
     newd         :     49.46s CPU     61.55s WALL (      42 calls)
     mix_rho      :      7.53s CPU      7.60s WALL (      41 calls)

     Called by c_bands:
     init_us_2    :     14.23s CPU     14.32s WALL (     830 calls)
     cegterg      :  17415.52s CPU  17678.76s WALL (     410 calls)

     Called by sum_band:
     sum_band:bec :      2.36s CPU      2.36s WALL (     410 calls)
     addusdens    :     33.70s CPU     48.18s WALL (      41 calls)

     Called by *egterg:
     h_psi        :   3589.34s CPU   3665.14s WALL (    2113 calls)
     s_psi        :    395.09s CPU    395.55s WALL (    2113 calls)
     g_psi        :      5.72s CPU      5.74s WALL (    1693 calls)
     cdiaghg      :  10590.87s CPU  10686.53s WALL (    2103 calls)

     Called by h_psi:
     h_psi:pot    :   3579.90s CPU   3637.66s WALL (    2113 calls)
     h_psi:calbec :    629.32s CPU    630.17s WALL (    2113 calls)
     vloc_psi     :   2553.75s CPU   2607.27s WALL (    2113 calls)
     add_vuspsi   :    396.80s CPU    400.21s WALL (    2113 calls)

     General routines
     calbec       :    845.58s CPU    846.57s WALL (    2523 calls)
     fft          :    243.33s CPU    244.77s WALL (    2645 calls)
     ffts         :      5.87s CPU      5.88s WALL (      83 calls)
     fftw         :   2884.98s CPU   2946.13s WALL ( 1612652 calls)
     interpolate  :      4.30s CPU      4.33s WALL (      42 calls)
 
     Parallel routines
     fft_scatt_xy :    207.04s CPU    209.08s WALL ( 1615380 calls)
     fft_scatt_yz :   2030.90s CPU   2079.92s WALL ( 1615380 calls)
 
     PWSCF        :     5h12m CPU       12h 5m WALL

      17h
 
   This run was terminated on:   3:43: 9  23Nov2019            

=------------------------------------------------------------------------------=
   JOB DONE.
=------------------------------------------------------------------------------=
