
     Program PWSCF v.6.3MaX starts on 26Nov2019 at  3:47:37 

     This program is part of the open-source Quantum ESPRESSO suite
     for quantum simulation of materials; please cite
         "P. Giannozzi et al., J. Phys.:Condens. Matter 21 395502 (2009);
         "P. Giannozzi et al., J. Phys.:Condens. Matter 29 465901 (2017);
          URL http://www.quantum-espresso.org", 
     in publications or presentations arising from this work. More details at
     http://www.quantum-espresso.org/quote

     Parallel version (MPI), running on    16 processors

     MPI processes distributed on     2 nodes
     R & G space division:  proc/nbgrp/npool/nimage =      16
     Waiting for input...
     Reading input from standard input

     Current dimensions of program PWSCF are:
     Max number of different atomic species (ntypx) = 10
     Max number of k-points (npk) =  40000
     Max angular momentum in pseudopotentials (lmaxx) =  3
     Message from routine iosys:
     minimal I/O required, wf_collect reset to FALSE

     IMPORTANT: XC functional enforced from input :
     Exchange-correlation      = VDW-DF ( 1  4  4  0 1 0)
     Any further DFT definition will be discarded
     Please, verify this is what you really want


     Subspace diagonalization in iterative solution of the eigenvalue problem:
     one sub-group per band group will be used
     scalapack distributed-memory algorithm (size of sub-group:  2*  2 procs)

 
     Parallelization info
     --------------------
     sticks:   dense  smooth     PW     G-vecs:    dense   smooth      PW
     Min         565     189     51               159513    30701    4383
     Max         566     190     52               159526    30710    4400
     Sum        9055    3037    823              2552337   491295   70261
 


     bravais-lattice index     =            0
     lattice parameter (alat)  =      14.8058  a.u.
     unit-cell volume          =   10282.4791 (a.u.)^3
     number of atoms/cell      =           66
     number of atomic types    =            3
     number of electrons       =      1056.00
     number of Kohn-Sham states=          634
     kinetic-energy cutoff     =      50.0000  Ry
     charge density cutoff     =     600.0000  Ry
     convergence threshold     =      1.0E-08
     mixing beta               =       0.3000
     number of iterations used =            8  plain     mixing
     Exchange-correlation      = VDW-DF ( 1  4  4  0 1 0)

     celldm(1)=  14.805786  celldm(2)=   0.000000  celldm(3)=   0.000000
     celldm(4)=   0.000000  celldm(5)=   0.000000  celldm(6)=   0.000000

     crystal axes: (cart. coord. in units of alat)
               a(1) = (   1.000000   0.000000   0.000000 )  
               a(2) = (   0.500000   0.866025   0.000000 )  
               a(3) = (   0.000000   0.000000   3.658245 )  

     reciprocal axes: (cart. coord. in units 2 pi/alat)
               b(1) = (  1.000000 -0.577350  0.000000 )  
               b(2) = (  0.000000  1.154701  0.000000 )  
               b(3) = (  0.000000  0.000000  0.273355 )  


     PseudoPot. # 1 for Cu read from file:
     /deac/thonhauserGrp/chakrad/calculations/atomandmolecule-qe6.2.1-i2012-C6modif/all_pbe_UPF_v1.5/cu_pbe_v1.2.uspp.F.UPF
     MD5 check sum: 6e991ff952a84172a2a52a1c1e996048
     Pseudo is Ultrasoft + core correction, Zval = 19.0
     Generated by new atomic code, or converted to UPF format
     Using radial grid of  867 points,  6 beta functions with: 
                l(1) =   0
                l(2) =   0
                l(3) =   1
                l(4) =   1
                l(5) =   2
                l(6) =   2
     Q(r) pseudized with  8 coefficients,  rinner =    1.150   1.150   1.150
                                                       1.150   1.150

     PseudoPot. # 2 for C  read from file:
     /deac/thonhauserGrp/chakrad/calculations/atomandmolecule-qe6.2.1-i2012-C6modif/all_pbe_UPF_v1.5/c_pbe_v1.2.uspp.F.UPF
     MD5 check sum: d1aef80898a10debaa0f26306b886e00
     Pseudo is Ultrasoft + core correction, Zval =  4.0
     Generated by new atomic code, or converted to UPF format
     Using radial grid of  721 points,  4 beta functions with: 
                l(1) =   0
                l(2) =   0
                l(3) =   1
                l(4) =   1
     Q(r) pseudized with  8 coefficients,  rinner =    1.100   1.100   1.100


     PseudoPot. # 3 for H  read from file:
     /deac/thonhauserGrp/chakrad/calculations/atomandmolecule-qe6.2.1-i2012-C6modif/all_pbe_UPF_v1.5/h_pbe_v1.4.uspp.F.UPF
     MD5 check sum: 761ae9a214b05c3daf00ab9f6b793d6f
     Pseudo is Ultrasoft, Zval =  1.0
     Generated by new atomic code, or converted to UPF format
     Using radial grid of  615 points,  2 beta functions with: 
                l(1) =   0
                l(2) =   0
     Q(r) pseudized with  8 coefficients,  rinner =    0.700

     vdW kernel table read from file vdW_kernel_table
     MD5 check sum: cc9485f6209b1096fbef62427c856dab

     atomic species   valence    mass     pseudopotential
        Cu            19.00     1.00000     Cu( 1.00)
        C              4.00     1.00000     C ( 1.00)
        H              1.00     1.00000     H ( 1.00)

     No symmetry found



   Cartesian axes

     site n.     atom                  positions (alat units)
         1           Cu  tau(   1) = (   0.1666667   0.0962250   0.2552686  )
         2           Cu  tau(   2) = (   0.5000000   0.0962250   0.2552686  )
         3           Cu  tau(   3) = (   0.8333333   0.0962250   0.2552686  )
         4           Cu  tau(   4) = (   0.3333333   0.3849002   0.2552686  )
         5           Cu  tau(   5) = (   0.6666667   0.3849002   0.2552686  )
         6           Cu  tau(   6) = (   1.0000000   0.3849002   0.2552686  )
         7           Cu  tau(   7) = (   0.5000000   0.6735753   0.2552686  )
         8           Cu  tau(   8) = (   0.8333333   0.6735753   0.2552686  )
         9           Cu  tau(   9) = (   1.1666667   0.6735753   0.2552686  )
        10           Cu  tau(  10) = (   0.0000000   0.1924501   0.5274341  )
        11           Cu  tau(  11) = (   0.3333333   0.1924501   0.5274341  )
        12           Cu  tau(  12) = (   0.6666667   0.1924501   0.5274341  )
        13           Cu  tau(  13) = (   0.1666667   0.4811252   0.5274341  )
        14           Cu  tau(  14) = (   0.5000000   0.4811252   0.5274341  )
        15           Cu  tau(  15) = (   0.8333333   0.4811252   0.5274341  )
        16           Cu  tau(  16) = (   0.3333333   0.7698004   0.5274341  )
        17           Cu  tau(  17) = (   0.6666667   0.7698004   0.5274341  )
        18           Cu  tau(  18) = (   1.0000000   0.7698004   0.5274341  )
        19           Cu  tau(  19) = (   0.0000000   0.0000000   0.7995997  )
        20           Cu  tau(  20) = (   0.3333333   0.0000000   0.7995997  )
        21           Cu  tau(  21) = (   0.6666667   0.0000000   0.7995997  )
        22           Cu  tau(  22) = (   0.1666667   0.2886751   0.7995997  )
        23           Cu  tau(  23) = (   0.5000000   0.2886751   0.7995997  )
        24           Cu  tau(  24) = (   0.8333333   0.2886751   0.7995997  )
        25           Cu  tau(  25) = (   0.3333333   0.5773503   0.7995997  )
        26           Cu  tau(  26) = (   0.6666667   0.5773503   0.7995997  )
        27           Cu  tau(  27) = (   1.0000000   0.5773503   0.7995997  )
        28           Cu  tau(  28) = (   0.1666659   0.0962246   1.0691130  )
        29           Cu  tau(  29) = (   0.5000000   0.0962241   1.0691104  )
        30           Cu  tau(  30) = (   0.8333341   0.0962246   1.0691130  )
        31           Cu  tau(  31) = (   0.3333325   0.3849006   1.0691104  )
        32           Cu  tau(  32) = (   0.6666675   0.3849006   1.0691104  )
        33           Cu  tau(  33) = (   1.0000000   0.3849003   1.0691143  )
        34           Cu  tau(  34) = (   0.5000000   0.6735762   1.0691130  )
        35           Cu  tau(  35) = (   0.8333334   0.6735753   1.0691143  )
        36           Cu  tau(  36) = (   1.1666666   0.6735753   1.0691143  )
        37           Cu  tau(  37) = (   0.0000000   0.1924486   1.3387540  )
        38           Cu  tau(  38) = (   0.3333330   0.1924499   1.3387465  )
        39           Cu  tau(  39) = (   0.6666670   0.1924499   1.3387465  )
        40           Cu  tau(  40) = (   0.1666676   0.4811247   1.3387504  )
        41           Cu  tau(  41) = (   0.5000000   0.4811256   1.3387465  )
        42           Cu  tau(  42) = (   0.8333324   0.4811247   1.3387504  )
        43           Cu  tau(  43) = (   0.3333346   0.7698011   1.3387540  )
        44           Cu  tau(  44) = (   0.6666654   0.7698011   1.3387540  )
        45           Cu  tau(  45) = (   1.0000000   0.7698014   1.3387504  )
        46           Cu  tau(  46) = (   0.0000000   0.0000000   1.6083750  )
        47           Cu  tau(  47) = (   0.3333333   0.0000005   1.6083624  )
        48           Cu  tau(  48) = (   0.6666667   0.0000005   1.6083624  )
        49           Cu  tau(  49) = (   0.1666671   0.2886748   1.6083624  )
        50           Cu  tau(  50) = (   0.5000000   0.2886751   1.6083553  )
        51           Cu  tau(  51) = (   0.8333329   0.2886748   1.6083624  )
        52           Cu  tau(  52) = (   0.3333338   0.5773500   1.6083624  )
        53           Cu  tau(  53) = (   0.6666662   0.5773500   1.6083624  )
        54           Cu  tau(  54) = (   1.0000000   0.5773503   1.6083570  )
        55           C   tau(  55) = (   0.6567407   0.3959883   1.9274037  )
        56           C   tau(  56) = (   0.5046394   0.3028152   1.9274036  )
        57           C   tau(  57) = (   0.3478975   0.3879497   1.9274037  )
        58           C   tau(  58) = (   0.3432593   0.5662630   1.9274037  )
        59           C   tau(  59) = (   0.4953606   0.6594361   1.9274036  )
        60           C   tau(  60) = (   0.6521025   0.5743016   1.9274037  )
        61           H   tau(  61) = (   0.7789959   0.3295665   1.9274819  )
        62           H   tau(  62) = (   0.5082587   0.1637263   1.9274819  )
        63           H   tau(  63) = (   0.2292624   0.3152577   1.9274819  )
        64           H   tau(  64) = (   0.2210041   0.6326847   1.9274819  )
        65           H   tau(  65) = (   0.4917413   0.7985249   1.9274819  )
        66           H   tau(  66) = (   0.7707376   0.6469936   1.9274819  )

     number of k points=    10  gaussian smearing, width (Ry)=  0.0200
                       cart. coord. in units 2pi/alat
        k(    1) = (   0.0000000   0.0000000   0.0000000), wk =   0.1250000
        k(    2) = (   0.0000000   0.2886751   0.0000000), wk =   0.2500000
        k(    3) = (   0.0000000  -0.5773503   0.0000000), wk =   0.1250000
        k(    4) = (   0.2500000  -0.7216878   0.0000000), wk =   0.2500000
        k(    5) = (  -0.2500000   0.1443376   0.0000000), wk =   0.2500000
        k(    6) = (   0.2500000   0.1443376   0.0000000), wk =   0.2500000
        k(    7) = (   0.5000000  -0.2886751   0.0000000), wk =   0.1250000
        k(    8) = (  -0.5000000  -0.2886751   0.0000000), wk =   0.1250000
        k(    9) = (  -0.2500000  -0.7216878   0.0000000), wk =   0.2500000
        k(   10) = (  -0.5000000  -0.5773503   0.0000000), wk =   0.2500000

     Dense  grid:  2552337 G-vectors     FFT dimensions: ( 120, 120, 432)

     Smooth grid:   491295 G-vectors     FFT dimensions: (  72,  72, 243)

     Estimated max dynamical RAM per process >       1.14 GB

     Estimated total dynamical RAM >      18.26 GB

     Initial potential from superposition of free atoms
     Check: negative starting charge=   -0.000858

     starting charge 1001.99960, renormalised to 1056.00000

     negative rho (up, down):  9.046E-04 0.000E+00


     %%%%%%%%%%%%%%%%%%%%%%%%%%%%%%%%%%%%%%%%%%%%%%%%%%%%%%%%%%%%%%%%%%%%%%%%
     %                                                                      %
     % You are using vdW-DF, which was implemented by the Thonhauser group. %
     % Please cite the following two papers that made this development      %
     % possible and the two reviews that describe the various versions:     %
     %                                                                      %
     %   T. Thonhauser et al., PRL 115, 136402 (2015).                      %
     %   T. Thonhauser et al., PRB 76, 125112 (2007).                       %
     %   K. Berland et al., Rep. Prog. Phys. 78, 066501 (2015).             %
     %   D.C. Langreth et al., J. Phys.: Condens. Matter 21, 084203 (2009). %
     %                                                                      %
     %                                                                      %
     % If you are calculating the stress with vdW-DF, please also cite:     %
     %                                                                      %
     %   R. Sabatini et al., J. Phys.: Condens. Matter 24, 424209 (2012).   %
     %                                                                      %
     %%%%%%%%%%%%%%%%%%%%%%%%%%%%%%%%%%%%%%%%%%%%%%%%%%%%%%%%%%%%%%%%%%%%%%%%


     Starting wfcs are  732 randomized atomic wfcs

     total cpu time spent up to now is       74.4 secs

     Self-consistent Calculation

     iteration #  1     ecut=    50.00 Ry     beta= 0.30
     Davidson diagonalization with overlap
     ethr =  1.00E-02,  avg # of iterations =  6.0

     negative rho (up, down):  4.353E-04 0.000E+00

     total cpu time spent up to now is     1383.4 secs

     total energy              =  -18728.31132388 Ry
     Harris-Foulkes estimate   =  -22015.27275536 Ry
     estimated scf accuracy    <    6495.31939993 Ry

     iteration #  2     ecut=    50.00 Ry     beta= 0.30
     Davidson diagonalization with overlap
     c_bands:  1 eigenvalues not converged
     ethr =  1.00E-02,  avg # of iterations = 18.8

     negative rho (up, down):  4.836E-04 0.000E+00

     total cpu time spent up to now is     4120.1 secs

     total energy              =  -19211.53634986 Ry
     Harris-Foulkes estimate   =  -39255.21658575 Ry
     estimated scf accuracy    <  275595.80562050 Ry

     iteration #  3     ecut=    50.00 Ry     beta= 0.30
     Davidson diagonalization with overlap
     ethr =  1.00E-02,  avg # of iterations =  8.0

     negative rho (up, down):  5.536E-04 0.000E+00

     total cpu time spent up to now is     5782.6 secs

     total energy              =  -21498.82554700 Ry
     Harris-Foulkes estimate   =  -23630.96125606 Ry
     estimated scf accuracy    <   58144.84183338 Ry

     iteration #  4     ecut=    50.00 Ry     beta= 0.30
     Davidson diagonalization with overlap
     ethr =  1.00E-02,  avg # of iterations =  7.0

     negative rho (up, down):  7.034E-04 0.000E+00

     total cpu time spent up to now is     7217.7 secs

     total energy              =  -21633.56964240 Ry
     Harris-Foulkes estimate   =  -22164.90700024 Ry
     estimated scf accuracy    <   16447.70961613 Ry

     iteration #  5     ecut=    50.00 Ry     beta= 0.30
     Davidson diagonalization with overlap
     ethr =  1.00E-02,  avg # of iterations =  6.0

     negative rho (up, down):  7.674E-04 0.000E+00

     total cpu time spent up to now is     8180.3 secs

     total energy              =  -21804.19003409 Ry
     Harris-Foulkes estimate   =  -22225.55193764 Ry
     estimated scf accuracy    <    8383.33715472 Ry

     iteration #  6     ecut=    50.00 Ry     beta= 0.30
     Davidson diagonalization with overlap
     ethr =  1.00E-02,  avg # of iterations =  7.1

     negative rho (up, down):  8.930E-04 0.000E+00

     total cpu time spent up to now is     9301.6 secs

     total energy              =  -21902.65135603 Ry
     Harris-Foulkes estimate   =  -21978.63049676 Ry
     estimated scf accuracy    <    3347.16798930 Ry

     iteration #  7     ecut=    50.00 Ry     beta= 0.30
     Davidson diagonalization with overlap
     ethr =  1.00E-02,  avg # of iterations =  2.7

     negative rho (up, down):  1.053E-03 0.000E+00

     total cpu time spent up to now is     9556.3 secs

     total energy              =  -21912.20030222 Ry
     Harris-Foulkes estimate   =  -21942.75216399 Ry
     estimated scf accuracy    <     332.44867750 Ry

     iteration #  8     ecut=    50.00 Ry     beta= 0.30
     Davidson diagonalization with overlap
     ethr =  1.00E-02,  avg # of iterations =  3.0

     negative rho (up, down):  1.176E-03 0.000E+00

     total cpu time spent up to now is     9806.8 secs

     total energy              =  -21916.24341559 Ry
     Harris-Foulkes estimate   =  -21921.58985954 Ry
     estimated scf accuracy    <      95.12303202 Ry

     iteration #  9     ecut=    50.00 Ry     beta= 0.30
     Davidson diagonalization with overlap
     ethr =  9.01E-03,  avg # of iterations =  1.0

     negative rho (up, down):  1.287E-03 0.000E+00

     total cpu time spent up to now is     9989.5 secs

     total energy              =  -21910.24541541 Ry
     Harris-Foulkes estimate   =  -21917.46995960 Ry
     estimated scf accuracy    <     110.50565108 Ry

     iteration # 10     ecut=    50.00 Ry     beta= 0.30
     Davidson diagonalization with overlap
     ethr =  9.01E-03,  avg # of iterations =  1.0

     negative rho (up, down):  1.648E-03 0.000E+00

     total cpu time spent up to now is    10169.8 secs

     total energy              =  -21892.79130419 Ry
     Harris-Foulkes estimate   =  -21912.28988592 Ry
     estimated scf accuracy    <      86.48772002 Ry

     iteration # 11     ecut=    50.00 Ry     beta= 0.30
     Davidson diagonalization with overlap
     ethr =  8.19E-03,  avg # of iterations =  3.7

     negative rho (up, down):  1.776E-04 0.000E+00

     total cpu time spent up to now is    10562.7 secs

     total energy              =  -21901.47690042 Ry
     Harris-Foulkes estimate   =  -21926.28153177 Ry
     estimated scf accuracy    <     932.29546280 Ry

     iteration # 12     ecut=    50.00 Ry     beta= 0.30
     Davidson diagonalization with overlap
     ethr =  8.19E-03,  avg # of iterations =  1.4

     negative rho (up, down):  1.390E-04 0.000E+00

     total cpu time spent up to now is    10762.2 secs

     total energy              =  -21899.28788748 Ry
     Harris-Foulkes estimate   =  -21910.90860951 Ry
     estimated scf accuracy    <     196.84907530 Ry

     iteration # 13     ecut=    50.00 Ry     beta= 0.30
     Davidson diagonalization with overlap
     ethr =  8.19E-03,  avg # of iterations =  2.0

     negative rho (up, down):  1.633E-04 0.000E+00

     total cpu time spent up to now is    10984.9 secs

     total energy              =  -21902.08194217 Ry
     Harris-Foulkes estimate   =  -21904.72763226 Ry
     estimated scf accuracy    <      13.88969899 Ry

     iteration # 14     ecut=    50.00 Ry     beta= 0.30
     Davidson diagonalization with overlap
     ethr =  1.32E-03,  avg # of iterations =  4.7

     negative rho (up, down):  1.538E-04 0.000E+00

     total cpu time spent up to now is    11352.3 secs

     total energy              =  -21904.53252433 Ry
     Harris-Foulkes estimate   =  -21904.80476122 Ry
     estimated scf accuracy    <      15.08546162 Ry

     iteration # 15     ecut=    50.00 Ry     beta= 0.30
     Davidson diagonalization with overlap
     ethr =  1.32E-03,  avg # of iterations =  1.0

     negative rho (up, down):  1.898E-04 0.000E+00

     total cpu time spent up to now is    11531.6 secs

     total energy              =  -21904.08905304 Ry
     Harris-Foulkes estimate   =  -21904.74938991 Ry
     estimated scf accuracy    <      14.22354550 Ry

     iteration # 16     ecut=    50.00 Ry     beta= 0.30
     Davidson diagonalization with overlap
     ethr =  1.32E-03,  avg # of iterations =  1.0

     negative rho (up, down):  2.147E-04 0.000E+00

     total cpu time spent up to now is    11718.1 secs

     total energy              =  -21904.02240423 Ry
     Harris-Foulkes estimate   =  -21904.23771897 Ry
     estimated scf accuracy    <       9.52267273 Ry

     iteration # 17     ecut=    50.00 Ry     beta= 0.30
     Davidson diagonalization with overlap
     ethr =  9.02E-04,  avg # of iterations =  1.3

     negative rho (up, down):  2.864E-04 0.000E+00

     total cpu time spent up to now is    11909.9 secs

     total energy              =  -21903.88535189 Ry
     Harris-Foulkes estimate   =  -21904.07555889 Ry
     estimated scf accuracy    <       5.56541514 Ry

     iteration # 18     ecut=    50.00 Ry     beta= 0.30
     Davidson diagonalization with overlap
     ethr =  5.27E-04,  avg # of iterations =  5.4

     negative rho (up, down):  4.117E-04 0.000E+00

     total cpu time spent up to now is    12239.8 secs

     total energy              =  -21903.74857467 Ry
     Harris-Foulkes estimate   =  -21903.93029139 Ry
     estimated scf accuracy    <       2.86944378 Ry

     iteration # 19     ecut=    50.00 Ry     beta= 0.30
     Davidson diagonalization with overlap
     ethr =  2.72E-04,  avg # of iterations =  5.9

     negative rho (up, down):  4.723E-04 0.000E+00

     total cpu time spent up to now is    12582.0 secs

     total energy              =  -21903.76757999 Ry
     Harris-Foulkes estimate   =  -21903.80290946 Ry
     estimated scf accuracy    <       0.72504960 Ry

     iteration # 20     ecut=    50.00 Ry     beta= 0.30
     Davidson diagonalization with overlap
     ethr =  6.87E-05,  avg # of iterations =  7.7

     negative rho (up, down):  1.100E-03 0.000E+00

     total cpu time spent up to now is    12985.4 secs

     total energy              =  -21903.62251232 Ry
     Harris-Foulkes estimate   =  -21903.77889966 Ry
     estimated scf accuracy    <       0.86079721 Ry

     iteration # 21     ecut=    50.00 Ry     beta= 0.30
     Davidson diagonalization with overlap
     ethr =  6.87E-05,  avg # of iterations =  6.3

     negative rho (up, down):  8.961E-04 0.000E+00

     total cpu time spent up to now is    13377.2 secs

     total energy              =  -21903.59921948 Ry
     Harris-Foulkes estimate   =  -21903.79016161 Ry
     estimated scf accuracy    <       2.17319697 Ry

     iteration # 22     ecut=    50.00 Ry     beta= 0.30
     Davidson diagonalization with overlap
     ethr =  6.87E-05,  avg # of iterations =  4.4

     negative rho (up, down):  1.021E-03 0.000E+00

     total cpu time spent up to now is    13669.5 secs

     total energy              =  -21903.68629625 Ry
     Harris-Foulkes estimate   =  -21903.73729872 Ry
     estimated scf accuracy    <       0.44044775 Ry

     iteration # 23     ecut=    50.00 Ry     beta= 0.30
     Davidson diagonalization with overlap
     ethr =  4.17E-05,  avg # of iterations =  2.7

     negative rho (up, down):  1.053E-03 0.000E+00

     total cpu time spent up to now is    13898.0 secs

     total energy              =  -21903.70933218 Ry
     Harris-Foulkes estimate   =  -21903.71348330 Ry
     estimated scf accuracy    <       0.03214707 Ry

     iteration # 24     ecut=    50.00 Ry     beta= 0.30
     Davidson diagonalization with overlap
     ethr =  3.04E-06,  avg # of iterations =  9.0

     negative rho (up, down):  1.247E-03 0.000E+00

     total cpu time spent up to now is    14387.8 secs

     total energy              =  -21903.71060109 Ry
     Harris-Foulkes estimate   =  -21903.71233821 Ry
     estimated scf accuracy    <       0.01350938 Ry

     iteration # 25     ecut=    50.00 Ry     beta= 0.30
     Davidson diagonalization with overlap
     ethr =  1.28E-06,  avg # of iterations =  4.1

     negative rho (up, down):  1.562E-03 0.000E+00

     total cpu time spent up to now is    14688.6 secs

     total energy              =  -21903.71091523 Ry
     Harris-Foulkes estimate   =  -21903.71149109 Ry
     estimated scf accuracy    <       0.00236520 Ry

     iteration # 26     ecut=    50.00 Ry     beta= 0.30
     Davidson diagonalization with overlap
     ethr =  2.24E-07,  avg # of iterations =  6.9

     negative rho (up, down):  1.847E-03 0.000E+00

     total cpu time spent up to now is    15125.5 secs

     total energy              =  -21903.71104345 Ry
     Harris-Foulkes estimate   =  -21903.71129494 Ry
     estimated scf accuracy    <       0.00329094 Ry

     iteration # 27     ecut=    50.00 Ry     beta= 0.30
     Davidson diagonalization with overlap
     ethr =  2.24E-07,  avg # of iterations =  6.1

     negative rho (up, down):  1.864E-03 0.000E+00

     total cpu time spent up to now is    15493.5 secs

     total energy              =  -21903.71108841 Ry
     Harris-Foulkes estimate   =  -21903.71130612 Ry
     estimated scf accuracy    <       0.00203764 Ry

     iteration # 28     ecut=    50.00 Ry     beta= 0.30
     Davidson diagonalization with overlap
     ethr =  1.93E-07,  avg # of iterations =  1.0

     negative rho (up, down):  2.180E-03 0.000E+00

     total cpu time spent up to now is    15685.3 secs

     total energy              =  -21903.71121205 Ry
     Harris-Foulkes estimate   =  -21903.71130202 Ry
     estimated scf accuracy    <       0.00124185 Ry

     iteration # 29     ecut=    50.00 Ry     beta= 0.30
     Davidson diagonalization with overlap
     ethr =  1.18E-07,  avg # of iterations =  4.2

     negative rho (up, down):  2.341E-03 0.000E+00

     total cpu time spent up to now is    15976.3 secs

     total energy              =  -21903.71128733 Ry
     Harris-Foulkes estimate   =  -21903.71128956 Ry
     estimated scf accuracy    <       0.00015004 Ry

     iteration # 30     ecut=    50.00 Ry     beta= 0.30
     Davidson diagonalization with overlap
     ethr =  1.42E-08,  avg # of iterations =  2.9

     negative rho (up, down):  2.505E-03 0.000E+00

     total cpu time spent up to now is    16209.1 secs

     total energy              =  -21903.71130023 Ry
     Harris-Foulkes estimate   =  -21903.71129689 Ry
     estimated scf accuracy    <       0.00002267 Ry

     iteration # 31     ecut=    50.00 Ry     beta= 0.30
     Davidson diagonalization with overlap
     ethr =  2.15E-09,  avg # of iterations =  4.7

     negative rho (up, down):  2.612E-03 0.000E+00

     total cpu time spent up to now is    16503.4 secs

     total energy              =  -21903.71130280 Ry
     Harris-Foulkes estimate   =  -21903.71130260 Ry
     estimated scf accuracy    <       0.00001866 Ry

     iteration # 32     ecut=    50.00 Ry     beta= 0.30
     Davidson diagonalization with overlap
     ethr =  1.77E-09,  avg # of iterations =  2.3

     negative rho (up, down):  2.677E-03 0.000E+00

     total cpu time spent up to now is    16731.7 secs

     total energy              =  -21903.71130366 Ry
     Harris-Foulkes estimate   =  -21903.71130383 Ry
     estimated scf accuracy    <       0.00000280 Ry

     iteration # 33     ecut=    50.00 Ry     beta= 0.30
     Davidson diagonalization with overlap
     ethr =  2.65E-10,  avg # of iterations =  2.0

     negative rho (up, down):  2.717E-03 0.000E+00

     total cpu time spent up to now is    16944.4 secs

     total energy              =  -21903.71130387 Ry
     Harris-Foulkes estimate   =  -21903.71130399 Ry
     estimated scf accuracy    <       0.00000059 Ry

     iteration # 34     ecut=    50.00 Ry     beta= 0.30
     Davidson diagonalization with overlap
     ethr =  5.58E-11,  avg # of iterations =  2.1

     negative rho (up, down):  2.731E-03 0.000E+00

     total cpu time spent up to now is    17166.6 secs

     total energy              =  -21903.71130385 Ry
     Harris-Foulkes estimate   =  -21903.71130395 Ry
     estimated scf accuracy    <       0.00000049 Ry

     iteration # 35     ecut=    50.00 Ry     beta= 0.30
     Davidson diagonalization with overlap
     ethr =  4.64E-11,  avg # of iterations =  2.0

     negative rho (up, down):  2.757E-03 0.000E+00

     total cpu time spent up to now is    17376.0 secs

     total energy              =  -21903.71130369 Ry
     Harris-Foulkes estimate   =  -21903.71130390 Ry
     estimated scf accuracy    <       0.00000024 Ry

     iteration # 36     ecut=    50.00 Ry     beta= 0.30
     Davidson diagonalization with overlap
     ethr =  2.31E-11,  avg # of iterations =  2.1

     negative rho (up, down):  2.765E-03 0.000E+00

     total cpu time spent up to now is    17598.4 secs

     total energy              =  -21903.71130364 Ry
     Harris-Foulkes estimate   =  -21903.71130371 Ry
     estimated scf accuracy    <       0.00000004 Ry

     iteration # 37     ecut=    50.00 Ry     beta= 0.30
     Davidson diagonalization with overlap
     ethr =  3.67E-12,  avg # of iterations =  2.1

     negative rho (up, down):  2.770E-03 0.000E+00

     total cpu time spent up to now is    17863.3 secs

     total energy              =  -21903.71130359 Ry
     Harris-Foulkes estimate   =  -21903.71130364 Ry
     estimated scf accuracy    <       0.00000004 Ry

     iteration # 38     ecut=    50.00 Ry     beta= 0.30
     Davidson diagonalization with overlap
     ethr =  3.39E-12,  avg # of iterations =  2.0

     negative rho (up, down):  2.770E-03 0.000E+00

     total cpu time spent up to now is    18078.7 secs

     total energy              =  -21903.71130359 Ry
     Harris-Foulkes estimate   =  -21903.71130360 Ry
     estimated scf accuracy    <       0.00000021 Ry

     iteration # 39     ecut=    50.00 Ry     beta= 0.30
     Davidson diagonalization with overlap
     ethr =  3.39E-12,  avg # of iterations =  1.0

     negative rho (up, down):  2.775E-03 0.000E+00

     total cpu time spent up to now is    18260.1 secs

     End of self-consistent calculation

          k = 0.0000 0.0000 0.0000 ( 61453 PWs)   bands (ev):

  -107.6407-107.6224-107.6206-107.6200-107.6200-107.6165-107.6165-107.6144
  -107.6119-107.6119-107.6108-107.6097-107.6080-107.6080-107.6080-107.6077
  -107.6077-107.6070-107.6070-107.6052-107.6052-107.6050-107.6046-107.6023
  -107.6023-107.6022-107.6009-107.5972-107.5957-107.5951-107.5951-107.5938
  -107.5938-107.5929-107.5929-107.5923-107.5914-107.5839-107.5687-107.4688
  -107.4663-107.4663-107.4153-107.4128-107.4128-107.3586-107.3546-107.3546
  -107.3537-107.3520-107.3520-107.3513-107.3492-107.3492 -65.0884 -65.0712
   -65.0646 -65.0645 -65.0626 -65.0626 -65.0609 -65.0609 -65.0598 -65.0546
   -65.0537 -65.0535 -65.0535 -65.0530 -65.0524 -65.0524 -65.0518 -65.0518
   -65.0511 -65.0493 -65.0493 -65.0483 -65.0479 -65.0479 -65.0447 -65.0439
   -65.0430 -65.0397 -65.0388 -65.0388 -65.0378 -65.0378 -65.0369 -65.0356
   -65.0356 -65.0342 -65.0342 -65.0334 -65.0333 -65.0333 -65.0329 -65.0316
   -65.0307 -65.0307 -65.0303 -65.0290 -65.0290 -65.0278 -65.0274 -65.0274
   -65.0269 -65.0253 -65.0253 -65.0238 -65.0238 -65.0237 -65.0217 -65.0217
   -65.0198 -65.0190 -65.0190 -65.0183 -65.0165 -65.0165 -65.0165 -65.0139
   -65.0125 -65.0125 -65.0119 -65.0105 -65.0105 -65.0100 -65.0100 -65.0092
   -65.0089 -65.0089 -65.0074 -65.0074 -65.0072 -65.0069 -65.0060 -65.0060
   -65.0049 -65.0018 -65.0017 -65.0017 -65.0016 -65.0007 -65.0007 -64.9989
   -64.9981 -64.9981 -64.9977 -64.9968 -64.9968 -64.9959 -64.9959 -64.9951
   -64.9932 -64.9932 -64.9928 -64.9916 -64.9904 -64.9904 -64.9884 -64.9884
   -64.9884 -64.9877 -64.9853 -64.9853 -64.9849 -64.9819 -64.9819 -64.9754
   -64.9754 -64.9727 -64.9727 -64.9145 -64.9132 -64.9132 -64.8976 -64.8867
   -64.8867 -64.8641 -64.8560 -64.8560 -64.8558 -64.8536 -64.8536 -64.8418
   -64.8322 -64.8322 -64.8142 -64.8135 -64.8135 -64.8125 -64.8112 -64.8112
   -64.8091 -64.8091 -64.8091 -64.8088 -64.7978 -64.7955 -64.7955 -64.7777
   -64.7777 -64.7776 -64.7768 -64.7768 -64.7748 -64.7645 -64.7645 -64.7302
   -64.7266 -64.7266 -64.7257 -64.7240 -64.7240 -64.7227 -64.7207 -64.7207
   -13.5328 -10.7486 -10.7484  -7.1096  -7.1091  -5.1815  -3.8905  -3.5409
    -3.2999  -3.1929  -2.5325  -2.5323  -2.4793  -1.8584  -1.0629  -0.9282
    -0.9282  -0.9228  -0.9228  -0.9198  -0.9069  -0.6118  -0.6116  -0.5492
    -0.5492  -0.5201  -0.5085  -0.4978  -0.4978  -0.2781  -0.0879  -0.0879
    -0.0280  -0.0255  -0.0208  -0.0208   0.0060   0.3214   0.3215   0.4208
     0.4269   0.4269   0.4409   0.6257   0.6257   0.7670   0.7670   0.7677
     0.7800   0.8590   0.8590   0.9005   0.9063   0.9063   0.9118   0.9204
     0.9204   0.9513   0.9513   0.9521   0.9565   0.9842   0.9842   0.9988
     0.9988   0.9992   0.9999   1.0066   1.0066   1.0925   1.0995   1.1119
     1.1147   1.1147   1.1173   1.1173   1.1237   1.1246   1.1246   1.1467
     1.1467   1.1501   1.1503   1.1643   1.1643   1.2432   1.2432   1.3079
     1.3079   1.3236   1.3290   1.3290   1.3331   1.3764   1.3764   1.3874
     1.3874   1.5594   1.5594   1.5660   1.5701   1.5909   1.5909   1.7170
     1.7170   1.7257   1.7264   1.7264   1.7274   1.7274   1.7321   1.7392
     1.7438   1.7542   1.7542   1.7781   1.7915   1.8392   1.8392   1.8398
     1.8471   1.8509   1.8509   1.8564   1.8578   1.8924   1.8924   1.8942
     1.9157   1.9168   1.9168   1.9292   1.9292   1.9294   1.9383   1.9383
     1.9754   1.9754   1.9770   1.9802   1.9802   1.9854   1.9854   1.9857
     1.9872   2.0065   2.0065   2.0087   2.0122   2.0122   2.0134   2.0187
     2.0187   2.0197   2.0234   2.0272   2.0272   2.0874   2.0874   2.1153
     2.1164   2.1164   2.1305   2.1606   2.1606   2.1636   2.1636   2.1924
     2.1929   2.1961   2.1982   2.1982   2.2094   2.2094   2.2099   2.2135
     2.2135   2.3475   2.3475   2.3588   2.3647   2.3889   2.3889   2.4364
     2.4423   2.4423   2.4573   2.4573   2.4601   2.4601   2.4621   2.4786
     2.4970   2.5311   2.5312   2.5492   2.5492   2.5596   2.5596   2.5738
     2.5743   2.6285   2.6285   2.6349   2.6375   2.6375   2.6470   2.6470
     2.6490   2.6544   2.6544   2.6701   2.6789   2.6789   2.6878   2.6878
     2.6900   2.6900   2.6928   2.7060   2.7106   2.7106   2.7542   2.7542
     2.8261   2.8290   2.8290   2.8318   2.8343   2.8343   2.8811   2.8824
     2.8824   2.8838   2.8926   2.8927   2.8927   2.8994   2.9010   2.9010
     2.9026   2.9026   2.9236   2.9236   2.9250   2.9468   2.9468   2.9576
     2.9576   2.9605   2.9669   2.9670   2.9672   2.9754   2.9754   2.9758
     2.9783   2.9783   2.9790   2.9813   2.9813   2.9881   2.9881   2.9896
     3.0179   3.0228   3.0228   3.0337   3.0338   3.0430   3.0481   3.0481
     3.0655   3.0681   3.0843   3.0843   3.0889   3.0889   3.0896   3.0938
     3.1009   3.1009   3.1147   3.1147   3.1331   3.1331   3.1365   3.1418
     3.1418   3.1479   3.1482   3.1495   3.1495   3.1553   3.1701   3.1701
     3.1746   3.1885   3.1885   3.2026   3.2344   3.2353   3.2353   3.2408
     3.2408   3.2415   3.3184   3.3184   4.0539   4.1241   4.1241   4.1495
     4.3017   4.3316   4.3316   4.8762   5.4838   5.4838   5.5682   5.7800
     5.7914   5.7914   6.5281   6.5283   6.9807   7.3011   7.4223   7.4223
     7.4353   7.6548   7.6549   8.0363   8.0363   8.0384   8.0388   8.0583
     8.0583   8.1995   8.4277   8.4277   8.4430   8.4547   8.4547   8.7716
     8.8053   8.8232   8.8983   8.8984   8.9638   9.0588   9.0707   9.2720
     9.4283   9.4284   9.6047   9.7105   9.7105   9.7437   9.7437   9.9693
    10.0191  10.0193  10.0858  10.0980  10.5213  10.5582  10.6196  10.6196
    10.7036  10.7036  10.8843  10.8843  11.0229  11.0229  11.0657  11.1642
    11.1642  11.1885  11.2176  11.3578  11.3578  11.4696  11.5005  11.5005
    11.6001  11.6466  11.6466  11.8090  11.8390  11.8391  11.9096  11.9096
    11.9908  12.0341  12.0341  12.0451  12.0925  12.1279  12.1279  12.2535
    12.2535  12.3167  12.3974  12.4345  12.4345  12.7782  12.7782  12.8113
    12.9382  12.9383  12.9916  13.0984  13.0986  13.1092  13.1301  13.2042
    13.2801  13.3090

          k = 0.0000 0.2887 0.0000 ( 61417 PWs)   bands (ev):

  -107.6407-107.6224-107.6203-107.6200-107.6199-107.6169-107.6166-107.6145
  -107.6118-107.6117-107.6106-107.6095-107.6087-107.6082-107.6081-107.6079
  -107.6073-107.6069-107.6066-107.6054-107.6053-107.6050-107.6047-107.6023
  -107.6022-107.6021-107.6008-107.5972-107.5960-107.5952-107.5949-107.5938
  -107.5937-107.5931-107.5927-107.5919-107.5916-107.5839-107.5686-107.4688
  -107.4663-107.4663-107.4153-107.4128-107.4128-107.3582-107.3553-107.3547
  -107.3537-107.3519-107.3518-107.3510-107.3493-107.3492 -65.0883 -65.0705
   -65.0670 -65.0655 -65.0644 -65.0630 -65.0624 -65.0610 -65.0599 -65.0593
   -65.0577 -65.0567 -65.0556 -65.0555 -65.0550 -65.0534 -65.0528 -65.0515
   -65.0508 -65.0490 -65.0489 -65.0470 -65.0469 -65.0459 -65.0450 -65.0431
   -65.0427 -65.0422 -65.0408 -65.0405 -65.0400 -65.0391 -65.0381 -65.0367
   -65.0354 -65.0346 -65.0338 -65.0332 -65.0330 -65.0320 -65.0311 -65.0309
   -65.0303 -65.0290 -65.0274 -65.0265 -65.0262 -65.0258 -65.0252 -65.0245
   -65.0232 -65.0220 -65.0219 -65.0212 -65.0207 -65.0202 -65.0202 -65.0186
   -65.0181 -65.0173 -65.0170 -65.0163 -65.0157 -65.0155 -65.0146 -65.0138
   -65.0133 -65.0123 -65.0121 -65.0115 -65.0111 -65.0100 -65.0099 -65.0086
   -65.0080 -65.0080 -65.0072 -65.0063 -65.0060 -65.0055 -65.0050 -65.0040
   -65.0038 -65.0035 -65.0026 -65.0023 -65.0022 -65.0016 -65.0000 -64.9999
   -64.9996 -64.9989 -64.9984 -64.9981 -64.9978 -64.9966 -64.9963 -64.9954
   -64.9948 -64.9935 -64.9931 -64.9921 -64.9916 -64.9909 -64.9906 -64.9901
   -64.9890 -64.9877 -64.9865 -64.9864 -64.9850 -64.9837 -64.9824 -64.9791
   -64.9762 -64.9743 -64.9731 -64.9142 -64.9134 -64.9128 -64.8982 -64.8877
   -64.8869 -64.8619 -64.8559 -64.8556 -64.8547 -64.8536 -64.8536 -64.8424
   -64.8339 -64.8325 -64.8241 -64.8190 -64.8184 -64.8167 -64.8163 -64.8055
   -64.8048 -64.7998 -64.7990 -64.7978 -64.7962 -64.7955 -64.7955 -64.7813
   -64.7810 -64.7799 -64.7772 -64.7762 -64.7727 -64.7687 -64.7656 -64.7299
   -64.7272 -64.7266 -64.7257 -64.7239 -64.7238 -64.7226 -64.7208 -64.7207
   -13.5319 -10.7523 -10.7492  -7.1125  -7.1046  -5.1506  -3.6787  -3.5108
    -3.1971  -3.0998  -2.5961  -2.5422  -2.3318  -2.0701  -1.8079  -1.5013
    -1.3617  -1.3521  -0.9388  -0.8958  -0.8601  -0.7241  -0.6127  -0.5883
    -0.3090  -0.3046  -0.2599  -0.2139  -0.1254  -0.0962  -0.0301  -0.0298
     0.0873   0.1269   0.1553   0.2236   0.2402   0.2510   0.3374   0.4078
     0.4437   0.5023   0.5033   0.5941   0.6593   0.7034   0.7429   0.7473
     0.7510   0.7768   0.7845   0.7865   0.8108   0.8258   0.8490   0.8515
     0.8578   0.8605   0.8926   0.9004   0.9153   0.9201   0.9389   0.9528
     0.9663   0.9815   0.9904   1.0326   1.0391   1.0395   1.0398   1.0552
     1.0568   1.0670   1.0713   1.0943   1.1006   1.1487   1.2015   1.2056
     1.2069   1.2338   1.2423   1.2515   1.2553   1.2800   1.2853   1.3201
     1.3275   1.3321   1.4002   1.4008   1.4105   1.4210   1.4358   1.4439
     1.4828   1.4843   1.4976   1.5197   1.5227   1.5285   1.5460   1.6015
     1.6024   1.6059   1.6109   1.6306   1.6534   1.6678   1.6814   1.6865
     1.6924   1.7064   1.7371   1.7389   1.7631   1.7929   1.8207   1.8221
     1.8224   1.8344   1.8362   1.8414   1.8655   1.8728   1.8875   1.8958
     1.8968   1.8979   1.9049   1.9068   1.9104   1.9311   1.9416   1.9558
     1.9593   1.9639   1.9689   1.9723   1.9743   1.9808   1.9835   2.0002
     2.0021   2.0056   2.0067   2.0135   2.0235   2.0276   2.0378   2.0421
     2.0437   2.0514   2.0533   2.0761   2.0783   2.0811   2.0838   2.0857
     2.1236   2.1266   2.1298   2.1352   2.1460   2.1510   2.1534   2.1572
     2.1626   2.1704   2.1735   2.1864   2.1908   2.2189   2.2313   2.2321
     2.2370   2.2453   2.2540   2.2745   2.2848   2.3057   2.3057   2.3222
     2.3301   2.3342   2.3598   2.3778   2.3884   2.3933   2.3981   2.4043
     2.4363   2.4653   2.4719   2.4766   2.4902   2.4990   2.5146   2.5195
     2.5411   2.5479   2.5521   2.5540   2.5614   2.5656   2.5720   2.5754
     2.6201   2.6254   2.6361   2.6366   2.6367   2.6580   2.6653   2.6680
     2.6747   2.6771   2.6988   2.7044   2.7132   2.7165   2.7223   2.7317
     2.7441   2.7469   2.7550   2.7634   2.7793   2.7798   2.7856   2.7893
     2.7914   2.8017   2.8527   2.8612   2.8684   2.8817   2.8836   2.8970
     2.9064   2.9099   2.9135   2.9140   2.9182   2.9216   2.9294   2.9330
     2.9421   2.9468   2.9581   2.9876   2.9900   2.9907   2.9952   3.0069
     3.0078   3.0220   3.0243   3.0363   3.0436   3.0474   3.0694   3.0695
     3.0906   3.0943   3.0975   3.1025   3.1085   3.1144   3.1154   3.1195
     3.1207   3.1218   3.1375   3.1380   3.1410   3.1432   3.1483   3.1554
     3.1772   3.1781   3.1827   3.1841   3.1864   3.1901   3.1903   3.1926
     3.2148   3.2213   3.2280   3.2385   3.2402   3.2521   3.2554   3.2652
     3.2877   3.3542   3.4271   3.4622   3.4917   3.5006   3.6273   3.6528
     3.6572   3.9039   3.9322   3.9584   3.9844   4.0775   4.2603   4.5697
     4.7258   4.9004   4.9390   5.1532   5.2450   5.3462   5.4785   6.0020
     6.0267   6.1276   6.2183   6.3752   6.4160   6.4176   6.5346   6.7470
     6.8059   7.0544   7.0627   7.0992   7.2319   7.2763   7.6544   7.9257
     7.9484   7.9743   8.0999   8.2210   8.3279   8.4191   8.4554   8.5120
     8.6614   8.7449   8.8927   8.9021   9.0068   9.0532   9.3172   9.4336
     9.4510   9.4946   9.6017   9.6559   9.8410   9.8782   9.9315  10.0308
    10.0751  10.1307  10.2190  10.2624  10.2993  10.4482  10.5697  10.5758
    10.5997  10.6185  10.6253  10.7188  10.7579  10.8017  10.8344  10.9100
    11.0782  11.1056  11.1120  11.1990  11.2230  11.3029  11.4650  11.4699
    11.5749  11.5822  11.6728  11.7439  11.8218  11.9143  11.9284  12.0482
    12.1241  12.1404  12.2273  12.2896  12.4387  12.4676  12.5806  12.5896
    12.6270  12.6934  12.7641  12.8088  12.8377  12.8680  12.9477  13.0004
    13.0097  13.0904  13.1379  13.1625  13.2402  13.3413  13.4110  13.4349
    13.5262  13.5644

          k = 0.0000-0.5774 0.0000 ( 61408 PWs)   bands (ev):

  -107.6407-107.6224-107.6202-107.6200-107.6197-107.6174-107.6166-107.6146
  -107.6117-107.6115-107.6102-107.6092-107.6091-107.6086-107.6082-107.6079
  -107.6071-107.6067-107.6063-107.6057-107.6055-107.6050-107.6047-107.6022
  -107.6022-107.6020-107.6006-107.5973-107.5963-107.5953-107.5948-107.5940
  -107.5937-107.5931-107.5922-107.5920-107.5917-107.5838-107.5686-107.4688
  -107.4663-107.4663-107.4153-107.4128-107.4128-107.3576-107.3561-107.3548
  -107.3538-107.3517-107.3517-107.3509-107.3494-107.3492 -65.0882 -65.0699
   -65.0684 -65.0663 -65.0662 -65.0657 -65.0618 -65.0613 -65.0611 -65.0605
   -65.0592 -65.0587 -65.0576 -65.0571 -65.0565 -65.0548 -65.0539 -65.0536
   -65.0509 -65.0487 -65.0486 -65.0478 -65.0469 -65.0466 -65.0450 -65.0447
   -65.0438 -65.0434 -65.0419 -65.0410 -65.0401 -65.0393 -65.0383 -65.0365
   -65.0355 -65.0349 -65.0337 -65.0316 -65.0314 -65.0306 -65.0304 -65.0298
   -65.0292 -65.0255 -65.0249 -65.0245 -65.0237 -65.0236 -65.0227 -65.0225
   -65.0217 -65.0214 -65.0198 -65.0195 -65.0191 -65.0186 -65.0181 -65.0173
   -65.0169 -65.0162 -65.0162 -65.0159 -65.0155 -65.0135 -65.0131 -65.0129
   -65.0123 -65.0104 -65.0103 -65.0100 -65.0097 -65.0092 -65.0088 -65.0086
   -65.0079 -65.0072 -65.0063 -65.0060 -65.0057 -65.0055 -65.0042 -65.0035
   -65.0032 -65.0030 -65.0024 -65.0022 -65.0017 -65.0014 -65.0005 -65.0002
   -64.9998 -64.9989 -64.9989 -64.9983 -64.9982 -64.9980 -64.9976 -64.9967
   -64.9965 -64.9948 -64.9945 -64.9934 -64.9928 -64.9917 -64.9916 -64.9906
   -64.9905 -64.9893 -64.9882 -64.9872 -64.9870 -64.9852 -64.9852 -64.9807
   -64.9776 -64.9760 -64.9735 -64.9147 -64.9126 -64.9124 -64.8987 -64.8887
   -64.8871 -64.8601 -64.8558 -64.8546 -64.8536 -64.8536 -64.8531 -64.8433
   -64.8360 -64.8329 -64.8282 -64.8213 -64.8207 -64.8194 -64.8190 -64.8018
   -64.8011 -64.7978 -64.7955 -64.7955 -64.7899 -64.7896 -64.7888 -64.7879
   -64.7818 -64.7810 -64.7799 -64.7774 -64.7772 -64.7695 -64.7678 -64.7294
   -64.7278 -64.7267 -64.7258 -64.7238 -64.7236 -64.7226 -64.7209 -64.7207
   -13.5311 -10.7559 -10.7500  -7.1158  -7.0996  -5.1187  -3.4805  -3.2014
    -3.0634  -3.0554  -2.6857  -2.5597  -2.5518  -2.4191  -2.0433  -1.5518
    -1.5183  -1.5167  -1.3667  -1.0236  -0.9994  -0.6851  -0.5844  -0.5229
    -0.3905  -0.3376  -0.2537   0.0898   0.2011   0.2674   0.2808   0.2972
     0.2977   0.3035   0.3051   0.3404   0.3694   0.4543   0.4638   0.4751
     0.4794   0.4918   0.4934   0.4991   0.4996   0.5354   0.5400   0.5486
     0.5491   0.6209   0.6633   0.6834   0.7037   0.7101   0.7129   0.7672
     0.7916   0.8246   0.8899   0.8965   0.8976   0.8994   0.9022   0.9309
     0.9323   0.9392   0.9407   0.9736   0.9865   1.0649   1.0672   1.0712
     1.0796   1.0928   1.0996   1.1555   1.1643   1.1657   1.1868   1.1872
     1.2289   1.2302   1.2666   1.2672   1.3138   1.3148   1.3221   1.3349
     1.3924   1.3933   1.4328   1.4338   1.4352   1.4413   1.4482   1.4606
     1.4745   1.4750   1.5017   1.5318   1.5337   1.5705   1.5769   1.5963
     1.5997   1.6052   1.6059   1.6242   1.6266   1.6298   1.6333   1.6668
     1.6778   1.6826   1.6894   1.6901   1.7031   1.7176   1.7305   1.7465
     1.7482   1.7554   1.7635   1.7651   1.7684   1.7805   1.7937   1.8326
     1.8552   1.8598   1.8629   1.8746   1.8818   1.9059   1.9089   1.9133
     1.9148   1.9177   1.9215   1.9298   1.9382   1.9467   1.9786   1.9820
     1.9836   1.9857   1.9968   2.0022   2.0085   2.0165   2.0421   2.0518
     2.0549   2.0615   2.0650   2.0717   2.0747   2.0805   2.0833   2.0967
     2.1070   2.1344   2.1530   2.1585   2.1921   2.1933   2.1985   2.1990
     2.2042   2.2095   2.2138   2.2185   2.2195   2.2268   2.2386   2.2427
     2.2456   2.2488   2.2546   2.2571   2.2598   2.2628   2.2633   2.3189
     2.3319   2.3354   2.3555   2.3615   2.3653   2.3761   2.3916   2.4102
     2.4117   2.4213   2.4248   2.4300   2.4407   2.4477   2.4654   2.4831
     2.4848   2.4892   2.4930   2.5038   2.5078   2.5267   2.5274   2.5321
     2.5370   2.5404   2.5460   2.5492   2.5555   2.5749   2.5750   2.6477
     2.6643   2.6710   2.6787   2.6867   2.6895   2.7078   2.7119   2.7286
     2.7329   2.7545   2.7550   2.7672   2.7783   2.7849   2.7924   2.8028
     2.8039   2.8107   2.8196   2.8227   2.8291   2.8410   2.8521   2.8541
     2.8677   2.8826   2.8856   2.9105   2.9106   2.9176   2.9207   2.9209
     2.9249   2.9283   2.9421   2.9649   2.9706   2.9942   2.9971   3.0047
     3.0052   3.0226   3.0352   3.0463   3.0482   3.0796   3.0801   3.0968
     3.1126   3.1254   3.1269   3.1408   3.1421   3.1450   3.1468   3.1481
     3.1487   3.1606   3.1844   3.1864   3.1874   3.1876   3.1888   3.1998
     3.2044   3.2111   3.2169   3.2244   3.2366   3.2366   3.2407   3.2439
     3.2460   3.2877   3.2905   3.3016   3.3035   3.3046   3.3113   3.3145
     3.3227   3.3325   3.4342   3.9127   4.0020   4.0285   4.0890   4.4398
     4.5093   4.5132   4.5137   4.5160   4.7484   4.7692   4.7727   4.7760
     5.0477   5.1113   5.1984   5.2377   5.2403   5.3050   5.3643   5.4052
     5.5044   5.5838   5.8972   5.9905   6.1358   6.1759   6.2664   6.3074
     6.3321   6.3796   6.4277   6.7057   6.8173   6.9467   7.0500   7.5886
     7.6299   7.6612   7.7827   7.9025   8.0359   8.3746   8.4218   8.4873
     8.7359   8.7510   8.7810   8.8411   8.9418   9.0431   9.0704   9.2690
     9.3733   9.4029   9.4100   9.4322   9.4713   9.5102   9.5918   9.7309
     9.8003   9.8927   9.9895  10.0853  10.1393  10.2475  10.2950  10.4014
    10.4289  10.5682  10.6528  10.6792  10.7422  10.8027  10.9594  11.0465
    11.0841  11.1084  11.2316  11.2498  11.2943  11.4173  11.4432  11.5104
    11.8301  11.8570  11.9394  12.0748  12.1744  12.2380  12.2585  12.4089
    12.4123  12.4534  12.5212  12.7237  12.7671  12.8050  12.8147  12.8767
    12.9004  13.0599  13.1489  13.1679  13.2607  13.3433  13.3702  13.4100
    13.4362  13.4636  13.4750  13.4847  13.5014  13.6533  13.6610  13.7192
    13.9158  13.9221

          k = 0.2500-0.7217 0.0000 ( 61343 PWs)   bands (ev):

  -107.6407-107.6224-107.6202-107.6200-107.6197-107.6172-107.6169-107.6146
  -107.6117-107.6115-107.6103-107.6093-107.6090-107.6086-107.6084-107.6080
  -107.6070-107.6067-107.6063-107.6057-107.6054-107.6051-107.6047-107.6022
  -107.6022-107.6020-107.6006-107.5972-107.5964-107.5952-107.5948-107.5939
  -107.5938-107.5929-107.5925-107.5919-107.5917-107.5838-107.5686-107.4688
  -107.4663-107.4663-107.4153-107.4128-107.4128-107.3577-107.3558-107.3553
  -107.3536-107.3517-107.3516-107.3510-107.3494-107.3492 -65.0882 -65.0695
   -65.0681 -65.0675 -65.0657 -65.0642 -65.0635 -65.0627 -65.0615 -65.0604
   -65.0592 -65.0588 -65.0578 -65.0568 -65.0547 -65.0536 -65.0530 -65.0525
   -65.0514 -65.0503 -65.0488 -65.0482 -65.0475 -65.0461 -65.0458 -65.0445
   -65.0442 -65.0426 -65.0416 -65.0412 -65.0403 -65.0390 -65.0374 -65.0368
   -65.0360 -65.0349 -65.0341 -65.0320 -65.0309 -65.0305 -65.0300 -65.0292
   -65.0282 -65.0267 -65.0261 -65.0257 -65.0248 -65.0238 -65.0230 -65.0226
   -65.0226 -65.0206 -65.0200 -65.0190 -65.0183 -65.0179 -65.0176 -65.0167
   -65.0164 -65.0158 -65.0157 -65.0151 -65.0147 -65.0140 -65.0133 -65.0126
   -65.0117 -65.0114 -65.0103 -65.0101 -65.0100 -65.0098 -65.0085 -65.0079
   -65.0074 -65.0072 -65.0060 -65.0058 -65.0051 -65.0048 -65.0043 -65.0042
   -65.0036 -65.0035 -65.0030 -65.0022 -65.0016 -65.0014 -65.0009 -65.0007
   -64.9999 -64.9995 -64.9991 -64.9989 -64.9983 -64.9980 -64.9971 -64.9965
   -64.9962 -64.9950 -64.9941 -64.9935 -64.9930 -64.9926 -64.9922 -64.9909
   -64.9897 -64.9889 -64.9886 -64.9877 -64.9868 -64.9840 -64.9832 -64.9816
   -64.9782 -64.9753 -64.9740 -64.9141 -64.9132 -64.9124 -64.8986 -64.8884
   -64.8873 -64.8595 -64.8558 -64.8550 -64.8537 -64.8536 -64.8534 -64.8431
   -64.8355 -64.8333 -64.8264 -64.8254 -64.8229 -64.8162 -64.8127 -64.8119
   -64.7978 -64.7955 -64.7955 -64.7933 -64.7912 -64.7900 -64.7895 -64.7846
   -64.7840 -64.7836 -64.7825 -64.7766 -64.7723 -64.7717 -64.7678 -64.7294
   -64.7276 -64.7271 -64.7256 -64.7238 -64.7236 -64.7226 -64.7209 -64.7206
   -13.5311 -10.7544 -10.7514  -7.1117  -7.1037  -5.1190  -3.4801  -3.2622
    -3.2011  -2.7370  -2.6140  -2.5929  -2.4574  -2.4369  -2.1635  -1.8778
    -1.8250  -1.5637  -1.0465  -0.9673  -0.6544  -0.6287  -0.5734  -0.4379
    -0.4339  -0.1307  -0.0983  -0.0672  -0.0432   0.1429   0.1515   0.1585
     0.2761   0.3145   0.3478   0.3490   0.3543   0.3974   0.4096   0.4174
     0.4384   0.5048   0.5091   0.5404   0.5428   0.5498   0.5690   0.6460
     0.6687   0.6885   0.6970   0.7132   0.7343   0.7369   0.7398   0.7472
     0.7616   0.7692   0.8352   0.8482   0.8518   0.8740   0.8796   0.9047
     0.9138   0.9265   0.9385   0.9609   0.9942   1.0138   1.0226   1.0470
     1.0513   1.1057   1.1290   1.1682   1.1868   1.1934   1.1980   1.2032
     1.2804   1.2876   1.2944   1.2972   1.3049   1.3110   1.3431   1.3570
     1.3681   1.4231   1.4262   1.4373   1.4429   1.4532   1.4598   1.4631
     1.4720   1.5122   1.5161   1.5235   1.5297   1.5373   1.5508   1.5671
     1.5732   1.5823   1.5873   1.6138   1.6192   1.6242   1.6347   1.6419
     1.6497   1.6798   1.7201   1.7229   1.7244   1.7309   1.7389   1.7461
     1.7666   1.7788   1.7933   1.8081   1.8170   1.8193   1.8271   1.8293
     1.8331   1.8386   1.8577   1.8663   1.8691   1.8842   1.9037   1.9050
     1.9092   1.9242   1.9324   1.9437   1.9471   1.9588   1.9600   1.9697
     1.9757   1.9776   1.9818   1.9979   2.0064   2.0418   2.0453   2.0480
     2.0550   2.0643   2.0729   2.0789   2.0819   2.0907   2.0925   2.0945
     2.1005   2.1060   2.1095   2.1135   2.1395   2.1427   2.1484   2.1536
     2.1775   2.1809   2.1850   2.1897   2.1963   2.2008   2.2037   2.2052
     2.2059   2.2068   2.2567   2.2614   2.2934   2.3229   2.3267   2.3312
     2.3415   2.3439   2.3488   2.3582   2.3724   2.3883   2.4008   2.4145
     2.4295   2.4310   2.4607   2.4643   2.4719   2.4819   2.4829   2.4947
     2.5015   2.5050   2.5070   2.5129   2.5143   2.5169   2.5261   2.5424
     2.5450   2.5725   2.5835   2.5890   2.5895   2.6054   2.6154   2.6199
     2.6329   2.6457   2.6533   2.6555   2.6625   2.6676   2.7070   2.7103
     2.7121   2.7214   2.7246   2.7423   2.7492   2.7762   2.7840   2.7874
     2.7972   2.8031   2.8149   2.8215   2.8393   2.8446   2.8469   2.8568
     2.8650   2.8699   2.8747   2.8787   2.8848   2.8935   2.9232   2.9417
     2.9472   2.9536   2.9613   2.9817   2.9953   2.9999   3.0126   3.0252
     3.0401   3.0597   3.0704   3.0775   3.0807   3.0859   3.0920   3.1099
     3.1176   3.1252   3.1291   3.1335   3.1369   3.1425   3.1459   3.1494
     3.1546   3.1558   3.1600   3.1624   3.1679   3.1746   3.1751   3.1794
     3.1878   3.1988   3.2006   3.2107   3.2240   3.2345   3.2393   3.2464
     3.2505   3.2640   3.2653   3.2759   3.3048   3.3249   3.3273   3.5035
     3.5558   3.5883   3.5913   3.6750   3.6872   3.8561   4.0082   4.0273
     4.4182   4.4797   4.4954   4.5009   4.5248   4.7651   4.8334   4.8730
     4.8937   4.9328   5.1630   5.2915   5.3386   5.3725   5.8043   5.8183
     5.8871   5.9279   6.0459   6.1149   6.1257   6.2667   6.2808   6.3483
     6.4275   6.6227   6.6447   6.8207   6.9530   7.0145   7.0760   7.2242
     7.2826   7.2986   7.3673   7.5761   7.7023   7.8197   8.0965   8.1950
     8.4760   8.6652   8.6831   8.7319   8.7909   8.8501   9.1262   9.1658
     9.3226   9.3844   9.4334   9.5501   9.5880   9.6426   9.7599   9.8180
     9.8769  10.0330  10.1653  10.2097  10.2511  10.4065  10.4381  10.5882
    10.6086  10.6654  10.8272  10.9387  11.0552  11.0841  11.1271  11.1395
    11.2269  11.3476  11.4245  11.6127  11.6489  11.6761  11.7338  11.7746
    11.8305  11.9112  11.9349  11.9665  12.0482  12.1457  12.1932  12.2741
    12.3164  12.3660  12.4744  12.5219  12.5759  12.6816  12.7024  12.7822
    12.7886  12.8208  12.9431  12.9614  12.9950  13.1211  13.2105  13.2228
    13.3520  13.3964  13.4122  13.4340  13.5579  13.5915  13.7068  13.7404
    13.7827  13.8163

          k =-0.2500 0.1443 0.0000 ( 61417 PWs)   bands (ev):

  -107.6407-107.6224-107.6203-107.6200-107.6199-107.6169-107.6166-107.6145
  -107.6118-107.6117-107.6106-107.6095-107.6087-107.6082-107.6081-107.6079
  -107.6073-107.6069-107.6066-107.6054-107.6053-107.6050-107.6047-107.6023
  -107.6022-107.6021-107.6008-107.5972-107.5960-107.5952-107.5949-107.5938
  -107.5937-107.5931-107.5927-107.5919-107.5916-107.5839-107.5686-107.4688
  -107.4663-107.4663-107.4153-107.4128-107.4128-107.3582-107.3553-107.3547
  -107.3537-107.3519-107.3518-107.3510-107.3493-107.3492 -65.0883 -65.0705
   -65.0670 -65.0655 -65.0644 -65.0630 -65.0624 -65.0610 -65.0599 -65.0593
   -65.0577 -65.0567 -65.0556 -65.0555 -65.0550 -65.0534 -65.0528 -65.0515
   -65.0508 -65.0490 -65.0489 -65.0470 -65.0469 -65.0459 -65.0450 -65.0431
   -65.0427 -65.0422 -65.0408 -65.0405 -65.0400 -65.0391 -65.0381 -65.0367
   -65.0354 -65.0346 -65.0338 -65.0332 -65.0330 -65.0320 -65.0311 -65.0309
   -65.0303 -65.0290 -65.0274 -65.0265 -65.0262 -65.0258 -65.0252 -65.0245
   -65.0232 -65.0220 -65.0219 -65.0212 -65.0207 -65.0202 -65.0202 -65.0186
   -65.0181 -65.0173 -65.0170 -65.0163 -65.0157 -65.0155 -65.0146 -65.0138
   -65.0133 -65.0123 -65.0121 -65.0115 -65.0111 -65.0100 -65.0099 -65.0086
   -65.0080 -65.0080 -65.0072 -65.0063 -65.0060 -65.0055 -65.0050 -65.0040
   -65.0038 -65.0035 -65.0026 -65.0023 -65.0022 -65.0016 -65.0000 -64.9999
   -64.9996 -64.9989 -64.9984 -64.9981 -64.9978 -64.9966 -64.9963 -64.9954
   -64.9948 -64.9935 -64.9931 -64.9921 -64.9916 -64.9909 -64.9906 -64.9901
   -64.9890 -64.9877 -64.9866 -64.9864 -64.9850 -64.9837 -64.9824 -64.9791
   -64.9762 -64.9743 -64.9731 -64.9141 -64.9134 -64.9128 -64.8982 -64.8877
   -64.8869 -64.8619 -64.8559 -64.8556 -64.8547 -64.8536 -64.8536 -64.8424
   -64.8339 -64.8325 -64.8241 -64.8190 -64.8184 -64.8167 -64.8163 -64.8055
   -64.8048 -64.7998 -64.7990 -64.7978 -64.7962 -64.7955 -64.7955 -64.7813
   -64.7810 -64.7799 -64.7772 -64.7762 -64.7727 -64.7687 -64.7656 -64.7299
   -64.7272 -64.7266 -64.7257 -64.7239 -64.7238 -64.7226 -64.7208 -64.7207
   -13.5319 -10.7520 -10.7494  -7.1129  -7.1042  -5.1506  -3.6787  -3.5108
    -3.1971  -3.0998  -2.5960  -2.5423  -2.3318  -2.0701  -1.8079  -1.5013
    -1.3617  -1.3521  -0.9388  -0.8958  -0.8601  -0.7241  -0.6125  -0.5885
    -0.3090  -0.3046  -0.2599  -0.2139  -0.1254  -0.0962  -0.0301  -0.0298
     0.0873   0.1269   0.1553   0.2236   0.2402   0.2510   0.3374   0.4079
     0.4437   0.5023   0.5033   0.5941   0.6592   0.7034   0.7429   0.7473
     0.7510   0.7768   0.7845   0.7865   0.8108   0.8258   0.8490   0.8515
     0.8578   0.8605   0.8926   0.9004   0.9153   0.9201   0.9389   0.9528
     0.9663   0.9815   0.9904   1.0326   1.0390   1.0395   1.0398   1.0552
     1.0568   1.0670   1.0713   1.0943   1.1006   1.1487   1.2015   1.2056
     1.2069   1.2338   1.2423   1.2515   1.2553   1.2800   1.2853   1.3201
     1.3275   1.3321   1.4002   1.4008   1.4105   1.4210   1.4358   1.4439
     1.4828   1.4843   1.4976   1.5197   1.5227   1.5285   1.5460   1.6015
     1.6024   1.6059   1.6109   1.6306   1.6534   1.6678   1.6814   1.6865
     1.6924   1.7064   1.7371   1.7389   1.7631   1.7929   1.8207   1.8221
     1.8224   1.8344   1.8362   1.8414   1.8655   1.8728   1.8875   1.8958
     1.8968   1.8979   1.9049   1.9069   1.9104   1.9311   1.9416   1.9558
     1.9593   1.9639   1.9689   1.9723   1.9743   1.9808   1.9835   2.0002
     2.0021   2.0056   2.0067   2.0135   2.0235   2.0276   2.0378   2.0421
     2.0437   2.0514   2.0533   2.0761   2.0783   2.0811   2.0838   2.0857
     2.1236   2.1266   2.1298   2.1352   2.1460   2.1510   2.1535   2.1572
     2.1626   2.1704   2.1735   2.1864   2.1908   2.2189   2.2313   2.2321
     2.2370   2.2453   2.2540   2.2745   2.2848   2.3057   2.3057   2.3222
     2.3301   2.3342   2.3598   2.3778   2.3884   2.3933   2.3981   2.4043
     2.4363   2.4653   2.4719   2.4766   2.4902   2.4990   2.5146   2.5195
     2.5411   2.5479   2.5521   2.5540   2.5614   2.5656   2.5720   2.5754
     2.6201   2.6253   2.6361   2.6366   2.6367   2.6580   2.6653   2.6680
     2.6747   2.6771   2.6988   2.7044   2.7132   2.7165   2.7223   2.7317
     2.7441   2.7469   2.7550   2.7634   2.7793   2.7798   2.7856   2.7894
     2.7914   2.8017   2.8527   2.8612   2.8684   2.8817   2.8836   2.8970
     2.9064   2.9099   2.9135   2.9140   2.9182   2.9216   2.9294   2.9330
     2.9421   2.9468   2.9581   2.9876   2.9900   2.9907   2.9952   3.0068
     3.0078   3.0220   3.0243   3.0363   3.0436   3.0474   3.0694   3.0695
     3.0906   3.0943   3.0975   3.1025   3.1085   3.1144   3.1154   3.1195
     3.1207   3.1218   3.1375   3.1380   3.1410   3.1432   3.1483   3.1554
     3.1772   3.1781   3.1827   3.1841   3.1864   3.1901   3.1903   3.1926
     3.2148   3.2213   3.2280   3.2385   3.2402   3.2521   3.2554   3.2652
     3.2877   3.3542   3.4271   3.4622   3.4917   3.5006   3.6273   3.6528
     3.6572   3.9039   3.9322   3.9584   3.9844   4.0775   4.2603   4.5697
     4.7258   4.9004   4.9390   5.1532   5.2450   5.3462   5.4785   6.0020
     6.0267   6.1276   6.2182   6.3752   6.4160   6.4177   6.5346   6.7471
     6.8059   7.0544   7.0627   7.0992   7.2319   7.2763   7.6544   7.9257
     7.9484   7.9743   8.0999   8.2210   8.3279   8.4191   8.4554   8.5120
     8.6614   8.7449   8.8927   8.9021   9.0068   9.0532   9.3172   9.4336
     9.4510   9.4946   9.6018   9.6559   9.8410   9.8782   9.9315  10.0308
    10.0751  10.1307  10.2190  10.2624  10.2993  10.4482  10.5697  10.5758
    10.5997  10.6185  10.6253  10.7188  10.7579  10.8017  10.8344  10.9100
    11.0782  11.1056  11.1120  11.1990  11.2230  11.3029  11.4650  11.4698
    11.5749  11.5822  11.6728  11.7438  11.8218  11.9143  11.9284  12.0481
    12.1241  12.1404  12.2273  12.2896  12.4387  12.4675  12.5806  12.5895
    12.6270  12.6935  12.7641  12.8089  12.8378  12.8680  12.9477  13.0004
    13.0098  13.0904  13.1379  13.1625  13.2402  13.3413  13.4110  13.4348
    13.5262  13.5643

          k = 0.2500 0.1443 0.0000 ( 61417 PWs)   bands (ev):

  -107.6407-107.6224-107.6203-107.6200-107.6199-107.6169-107.6166-107.6145
  -107.6118-107.6117-107.6106-107.6095-107.6087-107.6082-107.6081-107.6079
  -107.6073-107.6069-107.6066-107.6054-107.6053-107.6050-107.6047-107.6023
  -107.6022-107.6021-107.6008-107.5972-107.5960-107.5952-107.5949-107.5938
  -107.5937-107.5931-107.5927-107.5919-107.5916-107.5839-107.5686-107.4688
  -107.4663-107.4663-107.4153-107.4128-107.4128-107.3582-107.3553-107.3547
  -107.3537-107.3519-107.3518-107.3510-107.3493-107.3492 -65.0883 -65.0705
   -65.0670 -65.0655 -65.0644 -65.0630 -65.0624 -65.0610 -65.0599 -65.0593
   -65.0577 -65.0567 -65.0556 -65.0555 -65.0550 -65.0534 -65.0528 -65.0515
   -65.0508 -65.0490 -65.0489 -65.0470 -65.0469 -65.0459 -65.0450 -65.0431
   -65.0427 -65.0422 -65.0408 -65.0405 -65.0400 -65.0391 -65.0381 -65.0367
   -65.0354 -65.0346 -65.0338 -65.0332 -65.0330 -65.0320 -65.0311 -65.0309
   -65.0303 -65.0290 -65.0274 -65.0265 -65.0262 -65.0258 -65.0252 -65.0245
   -65.0232 -65.0220 -65.0219 -65.0212 -65.0207 -65.0202 -65.0202 -65.0186
   -65.0181 -65.0173 -65.0170 -65.0163 -65.0157 -65.0155 -65.0146 -65.0138
   -65.0133 -65.0123 -65.0121 -65.0115 -65.0111 -65.0100 -65.0099 -65.0086
   -65.0080 -65.0080 -65.0072 -65.0063 -65.0060 -65.0055 -65.0050 -65.0040
   -65.0038 -65.0035 -65.0026 -65.0023 -65.0022 -65.0016 -65.0000 -64.9999
   -64.9996 -64.9989 -64.9984 -64.9981 -64.9978 -64.9966 -64.9963 -64.9954
   -64.9948 -64.9935 -64.9931 -64.9921 -64.9916 -64.9909 -64.9906 -64.9901
   -64.9890 -64.9877 -64.9866 -64.9864 -64.9850 -64.9837 -64.9824 -64.9791
   -64.9762 -64.9743 -64.9731 -64.9141 -64.9134 -64.9128 -64.8982 -64.8877
   -64.8869 -64.8619 -64.8559 -64.8556 -64.8547 -64.8536 -64.8536 -64.8424
   -64.8339 -64.8325 -64.8241 -64.8190 -64.8184 -64.8167 -64.8163 -64.8055
   -64.8048 -64.7998 -64.7990 -64.7978 -64.7962 -64.7955 -64.7955 -64.7813
   -64.7810 -64.7799 -64.7772 -64.7762 -64.7727 -64.7687 -64.7656 -64.7299
   -64.7272 -64.7266 -64.7257 -64.7239 -64.7238 -64.7226 -64.7208 -64.7207
   -13.5319 -10.7521 -10.7493  -7.1128  -7.1042  -5.1506  -3.6787  -3.5108
    -3.1971  -3.0998  -2.5961  -2.5422  -2.3318  -2.0701  -1.8079  -1.5013
    -1.3617  -1.3521  -0.9388  -0.8958  -0.8601  -0.7241  -0.6126  -0.5884
    -0.3090  -0.3046  -0.2599  -0.2139  -0.1254  -0.0962  -0.0301  -0.0298
     0.0873   0.1269   0.1553   0.2236   0.2402   0.2510   0.3374   0.4078
     0.4437   0.5023   0.5033   0.5941   0.6592   0.7034   0.7429   0.7473
     0.7510   0.7768   0.7845   0.7865   0.8108   0.8258   0.8490   0.8515
     0.8578   0.8605   0.8926   0.9004   0.9153   0.9201   0.9389   0.9528
     0.9663   0.9815   0.9904   1.0326   1.0390   1.0395   1.0398   1.0552
     1.0568   1.0670   1.0713   1.0943   1.1006   1.1487   1.2015   1.2056
     1.2069   1.2338   1.2423   1.2515   1.2553   1.2800   1.2853   1.3201
     1.3275   1.3321   1.4002   1.4008   1.4105   1.4210   1.4358   1.4439
     1.4828   1.4843   1.4976   1.5197   1.5227   1.5285   1.5460   1.6015
     1.6024   1.6059   1.6109   1.6306   1.6534   1.6678   1.6814   1.6865
     1.6924   1.7064   1.7371   1.7389   1.7631   1.7929   1.8207   1.8221
     1.8224   1.8344   1.8362   1.8414   1.8655   1.8728   1.8875   1.8958
     1.8968   1.8979   1.9049   1.9069   1.9104   1.9311   1.9416   1.9558
     1.9593   1.9639   1.9689   1.9723   1.9743   1.9808   1.9835   2.0002
     2.0021   2.0056   2.0067   2.0135   2.0235   2.0276   2.0378   2.0421
     2.0437   2.0514   2.0533   2.0761   2.0783   2.0811   2.0838   2.0857
     2.1236   2.1266   2.1298   2.1352   2.1460   2.1510   2.1535   2.1572
     2.1626   2.1704   2.1735   2.1864   2.1908   2.2189   2.2313   2.2321
     2.2370   2.2453   2.2540   2.2745   2.2848   2.3057   2.3057   2.3222
     2.3301   2.3342   2.3598   2.3778   2.3884   2.3933   2.3981   2.4043
     2.4363   2.4653   2.4719   2.4766   2.4902   2.4990   2.5146   2.5195
     2.5411   2.5479   2.5521   2.5540   2.5614   2.5656   2.5720   2.5754
     2.6201   2.6253   2.6361   2.6366   2.6367   2.6580   2.6653   2.6680
     2.6747   2.6771   2.6988   2.7044   2.7132   2.7165   2.7223   2.7317
     2.7441   2.7469   2.7550   2.7634   2.7793   2.7798   2.7856   2.7894
     2.7914   2.8017   2.8527   2.8612   2.8684   2.8817   2.8836   2.8970
     2.9064   2.9099   2.9135   2.9140   2.9182   2.9216   2.9294   2.9330
     2.9421   2.9468   2.9581   2.9876   2.9900   2.9907   2.9952   3.0068
     3.0078   3.0220   3.0243   3.0363   3.0436   3.0474   3.0694   3.0695
     3.0906   3.0943   3.0975   3.1025   3.1085   3.1144   3.1154   3.1195
     3.1207   3.1218   3.1375   3.1380   3.1410   3.1432   3.1483   3.1554
     3.1772   3.1781   3.1827   3.1841   3.1864   3.1901   3.1903   3.1926
     3.2148   3.2213   3.2280   3.2385   3.2402   3.2521   3.2554   3.2652
     3.2877   3.3542   3.4271   3.4622   3.4917   3.5006   3.6273   3.6528
     3.6572   3.9039   3.9322   3.9584   3.9844   4.0775   4.2603   4.5697
     4.7258   4.9004   4.9390   5.1532   5.2450   5.3462   5.4785   6.0020
     6.0267   6.1276   6.2182   6.3752   6.4160   6.4177   6.5346   6.7471
     6.8059   7.0544   7.0627   7.0992   7.2319   7.2763   7.6544   7.9257
     7.9484   7.9743   8.0999   8.2210   8.3279   8.4191   8.4554   8.5120
     8.6614   8.7449   8.8927   8.9021   9.0068   9.0532   9.3172   9.4336
     9.4510   9.4946   9.6018   9.6559   9.8410   9.8782   9.9315  10.0308
    10.0751  10.1307  10.2190  10.2624  10.2993  10.4482  10.5697  10.5758
    10.5997  10.6185  10.6253  10.7188  10.7579  10.8017  10.8344  10.9100
    11.0782  11.1056  11.1120  11.1990  11.2230  11.3029  11.4650  11.4699
    11.5749  11.5822  11.6728  11.7438  11.8218  11.9143  11.9284  12.0481
    12.1241  12.1404  12.2273  12.2896  12.4387  12.4675  12.5806  12.5896
    12.6270  12.6935  12.7641  12.8088  12.8378  12.8680  12.9477  13.0004
    13.0098  13.0904  13.1379  13.1625  13.2402  13.3413  13.4110  13.4348
    13.5262  13.5643

          k = 0.5000-0.2887 0.0000 ( 61408 PWs)   bands (ev):

  -107.6407-107.6224-107.6202-107.6200-107.6197-107.6174-107.6166-107.6146
  -107.6117-107.6115-107.6102-107.6092-107.6091-107.6086-107.6082-107.6079
  -107.6071-107.6067-107.6063-107.6057-107.6055-107.6050-107.6047-107.6022
  -107.6022-107.6020-107.6006-107.5973-107.5963-107.5953-107.5948-107.5940
  -107.5937-107.5931-107.5922-107.5920-107.5917-107.5838-107.5686-107.4688
  -107.4663-107.4663-107.4153-107.4128-107.4128-107.3576-107.3561-107.3548
  -107.3538-107.3517-107.3517-107.3509-107.3494-107.3492 -65.0882 -65.0699
   -65.0684 -65.0663 -65.0662 -65.0657 -65.0618 -65.0613 -65.0611 -65.0605
   -65.0592 -65.0587 -65.0576 -65.0571 -65.0565 -65.0548 -65.0539 -65.0536
   -65.0509 -65.0487 -65.0486 -65.0478 -65.0469 -65.0466 -65.0450 -65.0446
   -65.0438 -65.0434 -65.0419 -65.0410 -65.0401 -65.0393 -65.0383 -65.0365
   -65.0355 -65.0349 -65.0337 -65.0316 -65.0314 -65.0306 -65.0304 -65.0298
   -65.0292 -65.0255 -65.0249 -65.0245 -65.0237 -65.0236 -65.0227 -65.0225
   -65.0217 -65.0214 -65.0198 -65.0195 -65.0191 -65.0186 -65.0181 -65.0173
   -65.0169 -65.0162 -65.0162 -65.0159 -65.0155 -65.0135 -65.0131 -65.0129
   -65.0123 -65.0104 -65.0103 -65.0100 -65.0097 -65.0092 -65.0088 -65.0086
   -65.0079 -65.0072 -65.0063 -65.0060 -65.0057 -65.0055 -65.0042 -65.0035
   -65.0032 -65.0030 -65.0024 -65.0022 -65.0017 -65.0014 -65.0005 -65.0002
   -64.9998 -64.9989 -64.9989 -64.9983 -64.9982 -64.9980 -64.9976 -64.9967
   -64.9965 -64.9948 -64.9945 -64.9934 -64.9928 -64.9917 -64.9916 -64.9906
   -64.9905 -64.9893 -64.9882 -64.9872 -64.9870 -64.9852 -64.9852 -64.9807
   -64.9776 -64.9760 -64.9735 -64.9147 -64.9126 -64.9124 -64.8987 -64.8887
   -64.8871 -64.8601 -64.8558 -64.8546 -64.8536 -64.8536 -64.8531 -64.8433
   -64.8360 -64.8329 -64.8282 -64.8213 -64.8207 -64.8194 -64.8190 -64.8018
   -64.8011 -64.7978 -64.7955 -64.7955 -64.7899 -64.7896 -64.7888 -64.7879
   -64.7818 -64.7810 -64.7799 -64.7774 -64.7772 -64.7695 -64.7678 -64.7294
   -64.7278 -64.7267 -64.7258 -64.7238 -64.7236 -64.7226 -64.7209 -64.7207
   -13.5311 -10.7557 -10.7502  -7.1163  -7.0992  -5.1187  -3.4806  -3.2014
    -3.0634  -3.0554  -2.6856  -2.5597  -2.5519  -2.4191  -2.0433  -1.5518
    -1.5183  -1.5167  -1.3667  -1.0236  -0.9994  -0.6849  -0.5847  -0.5229
    -0.3905  -0.3376  -0.2537   0.0898   0.2011   0.2674   0.2808   0.2972
     0.2976   0.3035   0.3051   0.3404   0.3694   0.4543   0.4638   0.4751
     0.4794   0.4918   0.4934   0.4991   0.4996   0.5354   0.5400   0.5486
     0.5491   0.6210   0.6632   0.6834   0.7037   0.7101   0.7129   0.7672
     0.7916   0.8246   0.8899   0.8965   0.8976   0.8994   0.9022   0.9309
     0.9323   0.9392   0.9407   0.9737   0.9865   1.0649   1.0672   1.0712
     1.0796   1.0928   1.0996   1.1555   1.1643   1.1657   1.1868   1.1872
     1.2289   1.2302   1.2666   1.2672   1.3138   1.3148   1.3221   1.3349
     1.3924   1.3933   1.4328   1.4338   1.4352   1.4413   1.4482   1.4606
     1.4745   1.4750   1.5017   1.5318   1.5337   1.5705   1.5769   1.5963
     1.5997   1.6052   1.6059   1.6242   1.6266   1.6298   1.6333   1.6668
     1.6778   1.6826   1.6894   1.6901   1.7031   1.7177   1.7305   1.7465
     1.7482   1.7554   1.7635   1.7651   1.7684   1.7805   1.7937   1.8326
     1.8552   1.8598   1.8629   1.8746   1.8818   1.9059   1.9089   1.9133
     1.9148   1.9177   1.9215   1.9298   1.9382   1.9467   1.9786   1.9820
     1.9836   1.9857   1.9968   2.0021   2.0085   2.0165   2.0421   2.0518
     2.0549   2.0615   2.0650   2.0717   2.0747   2.0805   2.0833   2.0967
     2.1070   2.1344   2.1530   2.1585   2.1921   2.1933   2.1985   2.1990
     2.2042   2.2095   2.2138   2.2185   2.2195   2.2268   2.2386   2.2427
     2.2456   2.2488   2.2547   2.2571   2.2598   2.2628   2.2633   2.3189
     2.3319   2.3353   2.3555   2.3615   2.3653   2.3761   2.3916   2.4102
     2.4117   2.4213   2.4248   2.4300   2.4407   2.4477   2.4654   2.4831
     2.4848   2.4892   2.4930   2.5038   2.5078   2.5267   2.5274   2.5321
     2.5370   2.5404   2.5460   2.5492   2.5555   2.5749   2.5750   2.6477
     2.6644   2.6709   2.6787   2.6867   2.6895   2.7078   2.7119   2.7286
     2.7329   2.7545   2.7550   2.7672   2.7783   2.7849   2.7924   2.8028
     2.8039   2.8107   2.8196   2.8227   2.8291   2.8410   2.8521   2.8541
     2.8677   2.8826   2.8856   2.9105   2.9106   2.9176   2.9207   2.9209
     2.9249   2.9283   2.9421   2.9649   2.9706   2.9942   2.9971   3.0047
     3.0053   3.0226   3.0352   3.0463   3.0482   3.0796   3.0801   3.0968
     3.1126   3.1254   3.1269   3.1408   3.1421   3.1450   3.1468   3.1481
     3.1487   3.1606   3.1844   3.1864   3.1874   3.1876   3.1888   3.1998
     3.2044   3.2111   3.2169   3.2244   3.2366   3.2366   3.2407   3.2439
     3.2460   3.2877   3.2905   3.3016   3.3035   3.3046   3.3113   3.3145
     3.3227   3.3325   3.4342   3.9127   4.0020   4.0285   4.0890   4.4398
     4.5093   4.5132   4.5137   4.5160   4.7484   4.7692   4.7727   4.7760
     5.0476   5.1113   5.1985   5.2377   5.2403   5.3050   5.3643   5.4052
     5.5044   5.5838   5.8972   5.9906   6.1358   6.1759   6.2664   6.3074
     6.3320   6.3796   6.4278   6.7055   6.8174   6.9467   7.0500   7.5886
     7.6299   7.6612   7.7828   7.9025   8.0358   8.3745   8.4218   8.4873
     8.7359   8.7510   8.7810   8.8411   8.9418   9.0431   9.0704   9.2689
     9.3733   9.4029   9.4100   9.4323   9.4713   9.5103   9.5918   9.7309
     9.8003   9.8927   9.9896  10.0853  10.1393  10.2475  10.2950  10.4014
    10.4290  10.5682  10.6528  10.6792  10.7422  10.8026  10.9594  11.0465
    11.0842  11.1085  11.2316  11.2498  11.2943  11.4173  11.4432  11.5105
    11.8302  11.8571  11.9394  12.0747  12.1744  12.2380  12.2586  12.4089
    12.4124  12.4534  12.5212  12.7237  12.7670  12.8050  12.8146  12.8767
    12.9003  13.0599  13.1489  13.1679  13.2607  13.3433  13.3703  13.4100
    13.4362  13.4637  13.4750  13.4847  13.5014  13.6533  13.6610  13.7192
    13.9159  13.9220

          k =-0.5000-0.2887 0.0000 ( 61408 PWs)   bands (ev):

  -107.6407-107.6224-107.6202-107.6200-107.6197-107.6174-107.6166-107.6146
  -107.6117-107.6115-107.6102-107.6092-107.6091-107.6086-107.6082-107.6079
  -107.6071-107.6067-107.6063-107.6057-107.6055-107.6050-107.6047-107.6022
  -107.6022-107.6020-107.6006-107.5973-107.5963-107.5953-107.5948-107.5940
  -107.5937-107.5931-107.5922-107.5920-107.5917-107.5838-107.5686-107.4688
  -107.4663-107.4663-107.4153-107.4128-107.4128-107.3576-107.3561-107.3548
  -107.3538-107.3517-107.3517-107.3509-107.3494-107.3492 -65.0882 -65.0699
   -65.0684 -65.0663 -65.0662 -65.0657 -65.0618 -65.0613 -65.0611 -65.0605
   -65.0592 -65.0587 -65.0576 -65.0571 -65.0565 -65.0548 -65.0539 -65.0536
   -65.0509 -65.0487 -65.0486 -65.0478 -65.0469 -65.0466 -65.0450 -65.0447
   -65.0438 -65.0434 -65.0419 -65.0410 -65.0401 -65.0393 -65.0383 -65.0365
   -65.0355 -65.0349 -65.0337 -65.0316 -65.0314 -65.0306 -65.0304 -65.0298
   -65.0292 -65.0255 -65.0249 -65.0245 -65.0237 -65.0236 -65.0227 -65.0225
   -65.0217 -65.0214 -65.0198 -65.0195 -65.0191 -65.0186 -65.0181 -65.0173
   -65.0169 -65.0162 -65.0162 -65.0159 -65.0155 -65.0135 -65.0131 -65.0129
   -65.0123 -65.0104 -65.0103 -65.0100 -65.0097 -65.0092 -65.0088 -65.0086
   -65.0079 -65.0072 -65.0063 -65.0060 -65.0057 -65.0055 -65.0042 -65.0035
   -65.0032 -65.0030 -65.0024 -65.0022 -65.0017 -65.0014 -65.0005 -65.0002
   -64.9998 -64.9989 -64.9989 -64.9983 -64.9982 -64.9980 -64.9976 -64.9967
   -64.9965 -64.9948 -64.9945 -64.9934 -64.9928 -64.9917 -64.9916 -64.9906
   -64.9905 -64.9893 -64.9882 -64.9872 -64.9870 -64.9852 -64.9852 -64.9807
   -64.9776 -64.9760 -64.9735 -64.9147 -64.9126 -64.9124 -64.8987 -64.8887
   -64.8871 -64.8601 -64.8558 -64.8546 -64.8536 -64.8536 -64.8531 -64.8433
   -64.8360 -64.8329 -64.8282 -64.8213 -64.8207 -64.8194 -64.8190 -64.8018
   -64.8011 -64.7978 -64.7955 -64.7955 -64.7899 -64.7896 -64.7888 -64.7879
   -64.7818 -64.7810 -64.7799 -64.7774 -64.7772 -64.7695 -64.7678 -64.7294
   -64.7278 -64.7267 -64.7258 -64.7238 -64.7236 -64.7226 -64.7209 -64.7207
   -13.5311 -10.7557 -10.7501  -7.1162  -7.0992  -5.1187  -3.4806  -3.2014
    -3.0634  -3.0554  -2.6857  -2.5597  -2.5519  -2.4191  -2.0433  -1.5518
    -1.5183  -1.5167  -1.3667  -1.0236  -0.9994  -0.6850  -0.5846  -0.5229
    -0.3905  -0.3376  -0.2537   0.0898   0.2011   0.2674   0.2808   0.2972
     0.2976   0.3035   0.3051   0.3404   0.3694   0.4543   0.4638   0.4751
     0.4794   0.4918   0.4934   0.4991   0.4996   0.5354   0.5400   0.5486
     0.5491   0.6210   0.6633   0.6834   0.7037   0.7101   0.7129   0.7672
     0.7916   0.8246   0.8899   0.8965   0.8976   0.8994   0.9022   0.9309
     0.9323   0.9392   0.9407   0.9736   0.9865   1.0649   1.0672   1.0712
     1.0796   1.0928   1.0996   1.1555   1.1643   1.1657   1.1868   1.1872
     1.2289   1.2302   1.2666   1.2672   1.3138   1.3148   1.3221   1.3349
     1.3924   1.3933   1.4328   1.4338   1.4352   1.4413   1.4482   1.4606
     1.4745   1.4750   1.5017   1.5318   1.5337   1.5705   1.5769   1.5963
     1.5997   1.6052   1.6059   1.6242   1.6266   1.6298   1.6333   1.6668
     1.6778   1.6826   1.6894   1.6901   1.7031   1.7177   1.7305   1.7465
     1.7482   1.7554   1.7635   1.7651   1.7684   1.7805   1.7937   1.8326
     1.8552   1.8598   1.8629   1.8746   1.8818   1.9059   1.9089   1.9133
     1.9148   1.9177   1.9215   1.9298   1.9382   1.9467   1.9786   1.9820
     1.9836   1.9857   1.9968   2.0021   2.0085   2.0165   2.0421   2.0518
     2.0549   2.0615   2.0650   2.0717   2.0747   2.0805   2.0833   2.0967
     2.1070   2.1344   2.1530   2.1585   2.1921   2.1933   2.1985   2.1990
     2.2042   2.2095   2.2138   2.2185   2.2195   2.2268   2.2386   2.2427
     2.2456   2.2488   2.2547   2.2571   2.2598   2.2628   2.2633   2.3189
     2.3319   2.3353   2.3555   2.3615   2.3653   2.3761   2.3916   2.4102
     2.4117   2.4213   2.4248   2.4300   2.4407   2.4477   2.4654   2.4831
     2.4848   2.4892   2.4930   2.5038   2.5078   2.5267   2.5274   2.5321
     2.5370   2.5404   2.5460   2.5492   2.5555   2.5749   2.5750   2.6477
     2.6644   2.6709   2.6787   2.6867   2.6895   2.7078   2.7119   2.7286
     2.7329   2.7545   2.7550   2.7672   2.7783   2.7849   2.7924   2.8028
     2.8039   2.8107   2.8196   2.8227   2.8291   2.8410   2.8521   2.8541
     2.8677   2.8826   2.8856   2.9105   2.9106   2.9176   2.9207   2.9209
     2.9249   2.9283   2.9421   2.9649   2.9706   2.9942   2.9971   3.0047
     3.0052   3.0226   3.0352   3.0463   3.0482   3.0796   3.0801   3.0968
     3.1126   3.1254   3.1269   3.1408   3.1421   3.1450   3.1468   3.1481
     3.1487   3.1606   3.1844   3.1864   3.1874   3.1876   3.1888   3.1998
     3.2044   3.2111   3.2169   3.2244   3.2366   3.2366   3.2407   3.2439
     3.2460   3.2877   3.2905   3.3016   3.3035   3.3046   3.3113   3.3145
     3.3227   3.3325   3.4342   3.9127   4.0020   4.0285   4.0890   4.4398
     4.5093   4.5132   4.5137   4.5160   4.7484   4.7692   4.7727   4.7760
     5.0476   5.1113   5.1985   5.2377   5.2403   5.3050   5.3643   5.4052
     5.5044   5.5838   5.8972   5.9906   6.1358   6.1759   6.2664   6.3074
     6.3320   6.3796   6.4278   6.7056   6.8174   6.9467   7.0500   7.5886
     7.6299   7.6612   7.7828   7.9025   8.0358   8.3746   8.4218   8.4873
     8.7359   8.7510   8.7810   8.8411   8.9418   9.0431   9.0704   9.2689
     9.3733   9.4029   9.4100   9.4323   9.4713   9.5103   9.5918   9.7309
     9.8003   9.8927   9.9896  10.0853  10.1393  10.2475  10.2950  10.4014
    10.4289  10.5682  10.6528  10.6792  10.7422  10.8026  10.9594  11.0465
    11.0842  11.1085  11.2316  11.2498  11.2943  11.4173  11.4431  11.5105
    11.8302  11.8571  11.9394  12.0747  12.1744  12.2380  12.2585  12.4089
    12.4124  12.4534  12.5212  12.7237  12.7671  12.8050  12.8146  12.8767
    12.9003  13.0599  13.1489  13.1679  13.2607  13.3433  13.3703  13.4100
    13.4362  13.4637  13.4750  13.4847  13.5014  13.6533  13.6610  13.7192
    13.9160  13.9221

          k =-0.2500-0.7217 0.0000 ( 61343 PWs)   bands (ev):

  -107.6407-107.6224-107.6202-107.6200-107.6197-107.6172-107.6169-107.6146
  -107.6117-107.6115-107.6103-107.6093-107.6090-107.6086-107.6084-107.6080
  -107.6070-107.6067-107.6063-107.6057-107.6054-107.6051-107.6047-107.6022
  -107.6022-107.6020-107.6006-107.5972-107.5964-107.5952-107.5948-107.5939
  -107.5938-107.5929-107.5924-107.5919-107.5917-107.5838-107.5686-107.4688
  -107.4663-107.4663-107.4153-107.4128-107.4128-107.3577-107.3558-107.3553
  -107.3536-107.3517-107.3516-107.3510-107.3494-107.3492 -65.0882 -65.0695
   -65.0681 -65.0675 -65.0657 -65.0642 -65.0635 -65.0627 -65.0615 -65.0604
   -65.0592 -65.0588 -65.0578 -65.0568 -65.0547 -65.0536 -65.0530 -65.0525
   -65.0514 -65.0503 -65.0488 -65.0482 -65.0475 -65.0461 -65.0458 -65.0445
   -65.0442 -65.0426 -65.0416 -65.0412 -65.0403 -65.0390 -65.0374 -65.0368
   -65.0360 -65.0349 -65.0341 -65.0320 -65.0309 -65.0305 -65.0300 -65.0292
   -65.0282 -65.0267 -65.0261 -65.0257 -65.0249 -65.0238 -65.0230 -65.0226
   -65.0226 -65.0206 -65.0200 -65.0190 -65.0183 -65.0179 -65.0176 -65.0167
   -65.0164 -65.0158 -65.0157 -65.0151 -65.0147 -65.0140 -65.0133 -65.0126
   -65.0117 -65.0114 -65.0103 -65.0101 -65.0100 -65.0098 -65.0085 -65.0079
   -65.0074 -65.0072 -65.0060 -65.0058 -65.0051 -65.0048 -65.0043 -65.0042
   -65.0036 -65.0035 -65.0030 -65.0022 -65.0016 -65.0014 -65.0009 -65.0007
   -64.9999 -64.9995 -64.9991 -64.9989 -64.9983 -64.9980 -64.9971 -64.9965
   -64.9962 -64.9950 -64.9941 -64.9935 -64.9930 -64.9926 -64.9921 -64.9909
   -64.9897 -64.9889 -64.9886 -64.9877 -64.9868 -64.9840 -64.9832 -64.9816
   -64.9782 -64.9753 -64.9740 -64.9141 -64.9132 -64.9124 -64.8986 -64.8884
   -64.8873 -64.8595 -64.8558 -64.8550 -64.8537 -64.8536 -64.8534 -64.8431
   -64.8355 -64.8333 -64.8264 -64.8254 -64.8229 -64.8162 -64.8127 -64.8119
   -64.7978 -64.7955 -64.7955 -64.7933 -64.7912 -64.7900 -64.7895 -64.7846
   -64.7840 -64.7836 -64.7825 -64.7766 -64.7723 -64.7717 -64.7678 -64.7294
   -64.7276 -64.7271 -64.7256 -64.7238 -64.7236 -64.7226 -64.7209 -64.7206
   -13.5311 -10.7544 -10.7515  -7.1118  -7.1036  -5.1190  -3.4801  -3.2622
    -3.2011  -2.7370  -2.6140  -2.5930  -2.4574  -2.4369  -2.1635  -1.8778
    -1.8250  -1.5637  -1.0465  -0.9673  -0.6544  -0.6287  -0.5734  -0.4379
    -0.4339  -0.1307  -0.0983  -0.0672  -0.0432   0.1429   0.1515   0.1585
     0.2761   0.3145   0.3478   0.3490   0.3543   0.3974   0.4096   0.4174
     0.4384   0.5048   0.5091   0.5404   0.5428   0.5498   0.5690   0.6460
     0.6687   0.6885   0.6970   0.7132   0.7343   0.7369   0.7398   0.7472
     0.7616   0.7692   0.8352   0.8482   0.8518   0.8740   0.8796   0.9047
     0.9138   0.9265   0.9385   0.9609   0.9942   1.0138   1.0226   1.0470
     1.0514   1.1057   1.1290   1.1682   1.1868   1.1934   1.1980   1.2032
     1.2804   1.2876   1.2944   1.2972   1.3049   1.3110   1.3431   1.3570
     1.3681   1.4231   1.4262   1.4373   1.4429   1.4532   1.4598   1.4631
     1.4720   1.5122   1.5161   1.5235   1.5297   1.5373   1.5508   1.5671
     1.5732   1.5823   1.5873   1.6138   1.6192   1.6242   1.6347   1.6419
     1.6497   1.6798   1.7201   1.7229   1.7244   1.7309   1.7389   1.7461
     1.7666   1.7788   1.7933   1.8081   1.8170   1.8193   1.8271   1.8293
     1.8331   1.8386   1.8577   1.8663   1.8691   1.8842   1.9037   1.9050
     1.9092   1.9242   1.9324   1.9437   1.9471   1.9588   1.9600   1.9697
     1.9757   1.9776   1.9818   1.9979   2.0064   2.0418   2.0453   2.0480
     2.0550   2.0643   2.0729   2.0789   2.0819   2.0907   2.0925   2.0945
     2.1005   2.1060   2.1095   2.1135   2.1395   2.1427   2.1484   2.1536
     2.1775   2.1809   2.1850   2.1897   2.1963   2.2008   2.2037   2.2052
     2.2059   2.2068   2.2567   2.2614   2.2934   2.3229   2.3267   2.3312
     2.3415   2.3439   2.3488   2.3582   2.3724   2.3883   2.4008   2.4145
     2.4295   2.4310   2.4607   2.4643   2.4719   2.4819   2.4829   2.4947
     2.5015   2.5050   2.5070   2.5129   2.5143   2.5169   2.5261   2.5424
     2.5450   2.5725   2.5835   2.5890   2.5895   2.6054   2.6154   2.6199
     2.6329   2.6457   2.6533   2.6555   2.6625   2.6676   2.7070   2.7103
     2.7121   2.7214   2.7246   2.7423   2.7492   2.7762   2.7840   2.7874
     2.7972   2.8031   2.8149   2.8215   2.8393   2.8446   2.8469   2.8568
     2.8650   2.8699   2.8747   2.8787   2.8848   2.8935   2.9232   2.9417
     2.9472   2.9536   2.9613   2.9817   2.9953   2.9999   3.0126   3.0252
     3.0401   3.0597   3.0704   3.0775   3.0807   3.0859   3.0920   3.1099
     3.1176   3.1252   3.1291   3.1334   3.1369   3.1425   3.1459   3.1494
     3.1546   3.1558   3.1600   3.1624   3.1679   3.1746   3.1751   3.1794
     3.1878   3.1988   3.2006   3.2107   3.2240   3.2345   3.2393   3.2464
     3.2505   3.2640   3.2653   3.2759   3.3048   3.3249   3.3273   3.5035
     3.5558   3.5883   3.5913   3.6750   3.6872   3.8561   4.0082   4.0273
     4.4182   4.4797   4.4954   4.5009   4.5248   4.7651   4.8334   4.8730
     4.8937   4.9328   5.1630   5.2915   5.3386   5.3725   5.8043   5.8183
     5.8871   5.9279   6.0459   6.1149   6.1257   6.2667   6.2808   6.3483
     6.4275   6.6227   6.6447   6.8207   6.9530   7.0145   7.0760   7.2242
     7.2826   7.2986   7.3673   7.5761   7.7024   7.8197   8.0965   8.1950
     8.4760   8.6652   8.6832   8.7319   8.7909   8.8501   9.1262   9.1658
     9.3227   9.3844   9.4334   9.5501   9.5880   9.6426   9.7599   9.8180
     9.8769  10.0329  10.1653  10.2097  10.2511  10.4065  10.4381  10.5882
    10.6086  10.6654  10.8272  10.9387  11.0552  11.0841  11.1271  11.1395
    11.2269  11.3476  11.4245  11.6127  11.6489  11.6761  11.7338  11.7746
    11.8305  11.9112  11.9349  11.9665  12.0482  12.1457  12.1932  12.2741
    12.3164  12.3659  12.4744  12.5219  12.5759  12.6816  12.7024  12.7822
    12.7886  12.8208  12.9431  12.9614  12.9950  13.1211  13.2105  13.2228
    13.3520  13.3964  13.4122  13.4340  13.5579  13.5915  13.7068  13.7404
    13.7827  13.8163

          k =-0.5000-0.5774 0.0000 ( 61343 PWs)   bands (ev):

  -107.6407-107.6224-107.6202-107.6200-107.6197-107.6172-107.6169-107.6146
  -107.6117-107.6115-107.6103-107.6093-107.6090-107.6086-107.6084-107.6080
  -107.6070-107.6067-107.6063-107.6057-107.6054-107.6051-107.6047-107.6022
  -107.6022-107.6020-107.6006-107.5972-107.5964-107.5952-107.5948-107.5939
  -107.5938-107.5929-107.5925-107.5919-107.5917-107.5838-107.5686-107.4688
  -107.4663-107.4663-107.4153-107.4128-107.4128-107.3577-107.3558-107.3553
  -107.3536-107.3517-107.3516-107.3510-107.3494-107.3492 -65.0882 -65.0695
   -65.0681 -65.0675 -65.0657 -65.0642 -65.0635 -65.0627 -65.0615 -65.0604
   -65.0592 -65.0588 -65.0578 -65.0568 -65.0547 -65.0536 -65.0530 -65.0525
   -65.0514 -65.0503 -65.0488 -65.0482 -65.0475 -65.0461 -65.0458 -65.0445
   -65.0442 -65.0426 -65.0416 -65.0412 -65.0403 -65.0390 -65.0374 -65.0368
   -65.0360 -65.0349 -65.0341 -65.0320 -65.0309 -65.0305 -65.0300 -65.0292
   -65.0282 -65.0267 -65.0261 -65.0257 -65.0249 -65.0238 -65.0230 -65.0226
   -65.0226 -65.0206 -65.0200 -65.0190 -65.0183 -65.0179 -65.0176 -65.0167
   -65.0164 -65.0158 -65.0157 -65.0151 -65.0147 -65.0140 -65.0133 -65.0126
   -65.0117 -65.0114 -65.0103 -65.0101 -65.0100 -65.0098 -65.0085 -65.0079
   -65.0074 -65.0072 -65.0060 -65.0058 -65.0051 -65.0048 -65.0043 -65.0042
   -65.0036 -65.0035 -65.0030 -65.0022 -65.0016 -65.0014 -65.0009 -65.0007
   -64.9999 -64.9995 -64.9991 -64.9989 -64.9983 -64.9980 -64.9971 -64.9965
   -64.9962 -64.9950 -64.9941 -64.9935 -64.9930 -64.9926 -64.9921 -64.9909
   -64.9897 -64.9889 -64.9886 -64.9877 -64.9868 -64.9840 -64.9832 -64.9816
   -64.9782 -64.9753 -64.9740 -64.9141 -64.9132 -64.9124 -64.8986 -64.8884
   -64.8873 -64.8595 -64.8558 -64.8550 -64.8537 -64.8536 -64.8534 -64.8431
   -64.8355 -64.8333 -64.8264 -64.8254 -64.8229 -64.8162 -64.8127 -64.8119
   -64.7978 -64.7955 -64.7955 -64.7933 -64.7912 -64.7900 -64.7895 -64.7846
   -64.7840 -64.7836 -64.7825 -64.7766 -64.7723 -64.7717 -64.7678 -64.7294
   -64.7276 -64.7271 -64.7256 -64.7238 -64.7236 -64.7226 -64.7209 -64.7206
   -13.5311 -10.7542 -10.7516  -7.1121  -7.1033  -5.1190  -3.4801  -3.2622
    -3.2011  -2.7370  -2.6140  -2.5930  -2.4574  -2.4369  -2.1635  -1.8778
    -1.8250  -1.5637  -1.0465  -0.9673  -0.6542  -0.6288  -0.5734  -0.4379
    -0.4339  -0.1307  -0.0982  -0.0672  -0.0432   0.1429   0.1515   0.1585
     0.2761   0.3145   0.3478   0.3490   0.3544   0.3974   0.4095   0.4174
     0.4384   0.5047   0.5091   0.5404   0.5428   0.5497   0.5690   0.6460
     0.6687   0.6885   0.6970   0.7132   0.7343   0.7369   0.7398   0.7471
     0.7616   0.7692   0.8352   0.8482   0.8518   0.8740   0.8796   0.9047
     0.9138   0.9265   0.9385   0.9609   0.9942   1.0138   1.0226   1.0470
     1.0513   1.1057   1.1290   1.1682   1.1868   1.1934   1.1980   1.2032
     1.2804   1.2876   1.2944   1.2972   1.3049   1.3110   1.3431   1.3570
     1.3681   1.4231   1.4262   1.4373   1.4429   1.4532   1.4598   1.4631
     1.4720   1.5122   1.5161   1.5235   1.5297   1.5373   1.5508   1.5671
     1.5732   1.5823   1.5872   1.6138   1.6192   1.6242   1.6347   1.6419
     1.6497   1.6798   1.7201   1.7229   1.7244   1.7309   1.7389   1.7461
     1.7666   1.7788   1.7933   1.8081   1.8170   1.8193   1.8271   1.8293
     1.8331   1.8386   1.8577   1.8663   1.8691   1.8842   1.9037   1.9050
     1.9092   1.9242   1.9324   1.9437   1.9471   1.9588   1.9600   1.9697
     1.9757   1.9776   1.9818   1.9979   2.0064   2.0418   2.0453   2.0480
     2.0550   2.0643   2.0729   2.0789   2.0819   2.0907   2.0925   2.0945
     2.1005   2.1060   2.1095   2.1135   2.1395   2.1427   2.1484   2.1536
     2.1775   2.1809   2.1850   2.1897   2.1963   2.2008   2.2038   2.2052
     2.2059   2.2068   2.2567   2.2614   2.2934   2.3229   2.3267   2.3312
     2.3415   2.3439   2.3488   2.3582   2.3724   2.3883   2.4008   2.4145
     2.4295   2.4310   2.4607   2.4643   2.4719   2.4819   2.4829   2.4947
     2.5015   2.5050   2.5070   2.5129   2.5143   2.5169   2.5261   2.5424
     2.5450   2.5725   2.5835   2.5890   2.5895   2.6054   2.6154   2.6199
     2.6329   2.6457   2.6533   2.6555   2.6625   2.6676   2.7070   2.7103
     2.7121   2.7214   2.7246   2.7423   2.7492   2.7762   2.7840   2.7874
     2.7972   2.8031   2.8149   2.8215   2.8393   2.8446   2.8469   2.8568
     2.8650   2.8699   2.8747   2.8787   2.8848   2.8935   2.9232   2.9417
     2.9472   2.9536   2.9613   2.9817   2.9953   2.9999   3.0126   3.0252
     3.0401   3.0597   3.0704   3.0775   3.0807   3.0859   3.0920   3.1099
     3.1176   3.1252   3.1291   3.1334   3.1369   3.1425   3.1459   3.1494
     3.1546   3.1558   3.1600   3.1624   3.1679   3.1746   3.1751   3.1794
     3.1878   3.1988   3.2006   3.2107   3.2240   3.2345   3.2393   3.2464
     3.2505   3.2640   3.2653   3.2759   3.3048   3.3249   3.3273   3.5035
     3.5558   3.5883   3.5913   3.6750   3.6872   3.8561   4.0082   4.0273
     4.4182   4.4797   4.4954   4.5009   4.5248   4.7651   4.8334   4.8730
     4.8937   4.9328   5.1630   5.2915   5.3386   5.3725   5.8044   5.8183
     5.8871   5.9279   6.0458   6.1149   6.1257   6.2667   6.2808   6.3484
     6.4275   6.6226   6.6448   6.8207   6.9530   7.0145   7.0760   7.2242
     7.2826   7.2987   7.3673   7.5761   7.7023   7.8197   8.0965   8.1950
     8.4759   8.6652   8.6832   8.7319   8.7909   8.8501   9.1261   9.1658
     9.3227   9.3844   9.4334   9.5501   9.5880   9.6426   9.7599   9.8180
     9.8769  10.0329  10.1653  10.2097  10.2511  10.4065  10.4381  10.5882
    10.6086  10.6653  10.8272  10.9387  11.0552  11.0841  11.1271  11.1396
    11.2269  11.3476  11.4245  11.6127  11.6490  11.6761  11.7338  11.7745
    11.8305  11.9113  11.9349  11.9665  12.0482  12.1456  12.1932  12.2741
    12.3164  12.3660  12.4744  12.5219  12.5759  12.6816  12.7024  12.7823
    12.7886  12.8208  12.9430  12.9614  12.9950  13.1211  13.2105  13.2228
    13.3520  13.3965  13.4122  13.4340  13.5579  13.5914  13.7068  13.7403
    13.7825  13.8160

     the Fermi energy is     4.8209 ev

!    total energy              =  -21903.71130354 Ry
     Harris-Foulkes estimate   =  -21903.71130359 Ry
     estimated scf accuracy    <          6.1E-09 Ry

     The total energy is the sum of the following terms:

     one-electron contribution = -210350.31419420 Ry
     hartree contribution      =  105384.59371325 Ry
     xc contribution           =   -2143.42746319 Ry
     ewald contribution        =   85205.49107312 Ry
     smearing contrib. (-TS)   =      -0.05443252 Ry

     convergence has been achieved in  39 iterations
 
     init_run     :     71.38s CPU     74.13s WALL (       1 calls)
     electrons    :  17843.82s CPU  18185.69s WALL (       1 calls)

     Called by init_run:
     wfcinit      :     61.00s CPU     62.90s WALL (       1 calls)
     potinit      :      6.91s CPU      7.17s WALL (       1 calls)
     hinit0       :      1.36s CPU      1.39s WALL (       1 calls)

     Called by electrons:
     c_bands      :  16686.18s CPU  16958.40s WALL (      39 calls)
     sum_band     :    861.34s CPU    901.78s WALL (      39 calls)
     v_of_rho     :    244.21s CPU    253.85s WALL (      40 calls)
     newd         :     47.15s CPU     67.23s WALL (      40 calls)
     mix_rho      :      7.30s CPU      7.41s WALL (      39 calls)

     Called by c_bands:
     init_us_2    :     17.43s CPU     17.53s WALL (     790 calls)
     cegterg      :  16560.68s CPU  16827.32s WALL (     390 calls)

     Called by sum_band:
     sum_band:bec :      3.21s CPU      3.22s WALL (     390 calls)
     addusdens    :     40.82s CPU     64.74s WALL (      39 calls)

     Called by *egterg:
     h_psi        :   3979.50s CPU   4065.57s WALL (    2026 calls)
     s_psi        :    395.58s CPU    396.00s WALL (    2026 calls)
     g_psi        :      7.09s CPU      7.11s WALL (    1626 calls)
     cdiaghg      :  10156.54s CPU  10236.12s WALL (    2016 calls)

     Called by h_psi:
     h_psi:pot    :   3968.72s CPU   4036.49s WALL (    2026 calls)
     h_psi:calbec :    447.87s CPU    448.76s WALL (    2026 calls)
     vloc_psi     :   3123.67s CPU   3189.55s WALL (    2026 calls)
     add_vuspsi   :    397.14s CPU    398.16s WALL (    2026 calls)

     General routines
     calbec       :    607.51s CPU    608.60s WALL (    2416 calls)
     fft          :    213.67s CPU    215.49s WALL (    2519 calls)
     ffts         :      2.65s CPU      2.67s WALL (      79 calls)
     fftw         :   3398.95s CPU   3473.03s WALL ( 1549350 calls)
     interpolate  :      3.69s CPU      3.72s WALL (      40 calls)
 
     Parallel routines
     fft_scatt_xy :    321.48s CPU    324.30s WALL ( 1551948 calls)
     fft_scatt_yz :   2286.92s CPU   2345.68s WALL ( 1551948 calls)
 
     PWSCF        :     4h58m CPU       58h 5m WALL

       4h
 
   This run was terminated on:   8:51:57  26Nov2019            

=------------------------------------------------------------------------------=
   JOB DONE.
=------------------------------------------------------------------------------=
