
     Program PWSCF v.6.3MaX starts on 14Nov2019 at 21: 9:34 

     This program is part of the open-source Quantum ESPRESSO suite
     for quantum simulation of materials; please cite
         "P. Giannozzi et al., J. Phys.:Condens. Matter 21 395502 (2009);
         "P. Giannozzi et al., J. Phys.:Condens. Matter 29 465901 (2017);
          URL http://www.quantum-espresso.org", 
     in publications or presentations arising from this work. More details at
     http://www.quantum-espresso.org/quote

     Parallel version (MPI), running on    16 processors

     MPI processes distributed on     2 nodes
     R & G space division:  proc/nbgrp/npool/nimage =      16
     Waiting for input...
     Reading input from standard input

     Current dimensions of program PWSCF are:
     Max number of different atomic species (ntypx) = 10
     Max number of k-points (npk) =  40000
     Max angular momentum in pseudopotentials (lmaxx) =  3
     Message from routine iosys:
     minimal I/O required, wf_collect reset to FALSE

     IMPORTANT: XC functional enforced from input :
     Exchange-correlation      = VDW-DF ( 1  4  4  0 1 0)
     Any further DFT definition will be discarded
     Please, verify this is what you really want


     Subspace diagonalization in iterative solution of the eigenvalue problem:
     one sub-group per band group will be used
     scalapack distributed-memory algorithm (size of sub-group:  2*  2 procs)

 
     Parallelization info
     --------------------
     sticks:   dense  smooth     PW     G-vecs:    dense   smooth      PW
     Min         565     189     51               159513    30701    4383
     Max         566     190     52               159526    30710    4400
     Sum        9055    3037    823              2552337   491295   70261
 


     bravais-lattice index     =            0
     lattice parameter (alat)  =      14.8058  a.u.
     unit-cell volume          =   10282.4791 (a.u.)^3
     number of atoms/cell      =           66
     number of atomic types    =            3
     number of electrons       =      1056.00
     number of Kohn-Sham states=          634
     kinetic-energy cutoff     =      50.0000  Ry
     charge density cutoff     =     600.0000  Ry
     convergence threshold     =      1.0E-08
     mixing beta               =       0.3000
     number of iterations used =            8  plain     mixing
     Exchange-correlation      = VDW-DF ( 1  4  4  0 1 0)

     celldm(1)=  14.805786  celldm(2)=   0.000000  celldm(3)=   0.000000
     celldm(4)=   0.000000  celldm(5)=   0.000000  celldm(6)=   0.000000

     crystal axes: (cart. coord. in units of alat)
               a(1) = (   1.000000   0.000000   0.000000 )  
               a(2) = (   0.500000   0.866025   0.000000 )  
               a(3) = (   0.000000   0.000000   3.658245 )  

     reciprocal axes: (cart. coord. in units 2 pi/alat)
               b(1) = (  1.000000 -0.577350  0.000000 )  
               b(2) = (  0.000000  1.154701  0.000000 )  
               b(3) = (  0.000000  0.000000  0.273355 )  


     PseudoPot. # 1 for Cu read from file:
     /deac/thonhauserGrp/chakrad/calculations/atomandmolecule-qe6.2.1-i2012-C6modif/all_pbe_UPF_v1.5/cu_pbe_v1.2.uspp.F.UPF
     MD5 check sum: 6e991ff952a84172a2a52a1c1e996048
     Pseudo is Ultrasoft + core correction, Zval = 19.0
     Generated by new atomic code, or converted to UPF format
     Using radial grid of  867 points,  6 beta functions with: 
                l(1) =   0
                l(2) =   0
                l(3) =   1
                l(4) =   1
                l(5) =   2
                l(6) =   2
     Q(r) pseudized with  8 coefficients,  rinner =    1.150   1.150   1.150
                                                       1.150   1.150

     PseudoPot. # 2 for C  read from file:
     /deac/thonhauserGrp/chakrad/calculations/atomandmolecule-qe6.2.1-i2012-C6modif/all_pbe_UPF_v1.5/c_pbe_v1.2.uspp.F.UPF
     MD5 check sum: d1aef80898a10debaa0f26306b886e00
     Pseudo is Ultrasoft + core correction, Zval =  4.0
     Generated by new atomic code, or converted to UPF format
     Using radial grid of  721 points,  4 beta functions with: 
                l(1) =   0
                l(2) =   0
                l(3) =   1
                l(4) =   1
     Q(r) pseudized with  8 coefficients,  rinner =    1.100   1.100   1.100


     PseudoPot. # 3 for H  read from file:
     /deac/thonhauserGrp/chakrad/calculations/atomandmolecule-qe6.2.1-i2012-C6modif/all_pbe_UPF_v1.5/h_pbe_v1.4.uspp.F.UPF
     MD5 check sum: 761ae9a214b05c3daf00ab9f6b793d6f
     Pseudo is Ultrasoft, Zval =  1.0
     Generated by new atomic code, or converted to UPF format
     Using radial grid of  615 points,  2 beta functions with: 
                l(1) =   0
                l(2) =   0
     Q(r) pseudized with  8 coefficients,  rinner =    0.700

     vdW kernel table read from file vdW_kernel_table
     MD5 check sum: cc9485f6209b1096fbef62427c856dab

     atomic species   valence    mass     pseudopotential
        Cu            19.00     1.00000     Cu( 1.00)
        C              4.00     1.00000     C ( 1.00)
        H              1.00     1.00000     H ( 1.00)

     No symmetry found



   Cartesian axes

     site n.     atom                  positions (alat units)
         1           Cu  tau(   1) = (   0.1666667   0.0962250   0.2552686  )
         2           Cu  tau(   2) = (   0.5000000   0.0962250   0.2552686  )
         3           Cu  tau(   3) = (   0.8333333   0.0962250   0.2552686  )
         4           Cu  tau(   4) = (   0.3333333   0.3849002   0.2552686  )
         5           Cu  tau(   5) = (   0.6666667   0.3849002   0.2552686  )
         6           Cu  tau(   6) = (   1.0000000   0.3849002   0.2552686  )
         7           Cu  tau(   7) = (   0.5000000   0.6735753   0.2552686  )
         8           Cu  tau(   8) = (   0.8333333   0.6735753   0.2552686  )
         9           Cu  tau(   9) = (   1.1666667   0.6735753   0.2552686  )
        10           Cu  tau(  10) = (   0.0000000   0.1924501   0.5274341  )
        11           Cu  tau(  11) = (   0.3333333   0.1924501   0.5274341  )
        12           Cu  tau(  12) = (   0.6666667   0.1924501   0.5274341  )
        13           Cu  tau(  13) = (   0.1666667   0.4811252   0.5274341  )
        14           Cu  tau(  14) = (   0.5000000   0.4811252   0.5274341  )
        15           Cu  tau(  15) = (   0.8333333   0.4811252   0.5274341  )
        16           Cu  tau(  16) = (   0.3333333   0.7698004   0.5274341  )
        17           Cu  tau(  17) = (   0.6666667   0.7698004   0.5274341  )
        18           Cu  tau(  18) = (   1.0000000   0.7698004   0.5274341  )
        19           Cu  tau(  19) = (   0.0000000   0.0000000   0.7995997  )
        20           Cu  tau(  20) = (   0.3333333   0.0000000   0.7995997  )
        21           Cu  tau(  21) = (   0.6666667   0.0000000   0.7995997  )
        22           Cu  tau(  22) = (   0.1666667   0.2886751   0.7995997  )
        23           Cu  tau(  23) = (   0.5000000   0.2886751   0.7995997  )
        24           Cu  tau(  24) = (   0.8333333   0.2886751   0.7995997  )
        25           Cu  tau(  25) = (   0.3333333   0.5773503   0.7995997  )
        26           Cu  tau(  26) = (   0.6666667   0.5773503   0.7995997  )
        27           Cu  tau(  27) = (   1.0000000   0.5773503   0.7995997  )
        28           Cu  tau(  28) = (   0.1666659   0.0962246   1.0691130  )
        29           Cu  tau(  29) = (   0.5000000   0.0962241   1.0691104  )
        30           Cu  tau(  30) = (   0.8333341   0.0962246   1.0691130  )
        31           Cu  tau(  31) = (   0.3333325   0.3849006   1.0691104  )
        32           Cu  tau(  32) = (   0.6666675   0.3849006   1.0691104  )
        33           Cu  tau(  33) = (   1.0000000   0.3849003   1.0691143  )
        34           Cu  tau(  34) = (   0.5000000   0.6735762   1.0691130  )
        35           Cu  tau(  35) = (   0.8333334   0.6735753   1.0691143  )
        36           Cu  tau(  36) = (   1.1666666   0.6735753   1.0691143  )
        37           Cu  tau(  37) = (   0.0000000   0.1924486   1.3387540  )
        38           Cu  tau(  38) = (   0.3333330   0.1924499   1.3387465  )
        39           Cu  tau(  39) = (   0.6666670   0.1924499   1.3387465  )
        40           Cu  tau(  40) = (   0.1666676   0.4811247   1.3387504  )
        41           Cu  tau(  41) = (   0.5000000   0.4811256   1.3387465  )
        42           Cu  tau(  42) = (   0.8333324   0.4811247   1.3387504  )
        43           Cu  tau(  43) = (   0.3333346   0.7698011   1.3387540  )
        44           Cu  tau(  44) = (   0.6666654   0.7698011   1.3387540  )
        45           Cu  tau(  45) = (   1.0000000   0.7698014   1.3387504  )
        46           Cu  tau(  46) = (   0.0000000   0.0000000   1.6083750  )
        47           Cu  tau(  47) = (   0.3333333   0.0000005   1.6083624  )
        48           Cu  tau(  48) = (   0.6666667   0.0000005   1.6083624  )
        49           Cu  tau(  49) = (   0.1666671   0.2886748   1.6083624  )
        50           Cu  tau(  50) = (   0.5000000   0.2886751   1.6083553  )
        51           Cu  tau(  51) = (   0.8333329   0.2886748   1.6083624  )
        52           Cu  tau(  52) = (   0.3333338   0.5773500   1.6083624  )
        53           Cu  tau(  53) = (   0.6666662   0.5773500   1.6083624  )
        54           Cu  tau(  54) = (   1.0000000   0.5773503   1.6083570  )
        55           C   tau(  55) = (   0.6567407   0.3959883   2.1124734  )
        56           C   tau(  56) = (   0.5046394   0.3028152   2.1124733  )
        57           C   tau(  57) = (   0.3478975   0.3879497   2.1124734  )
        58           C   tau(  58) = (   0.3432593   0.5662630   2.1124734  )
        59           C   tau(  59) = (   0.4953606   0.6594361   2.1124733  )
        60           C   tau(  60) = (   0.6521025   0.5743016   2.1124734  )
        61           H   tau(  61) = (   0.7789959   0.3295665   2.1125516  )
        62           H   tau(  62) = (   0.5082587   0.1637263   2.1125517  )
        63           H   tau(  63) = (   0.2292624   0.3152577   2.1125516  )
        64           H   tau(  64) = (   0.2210041   0.6326847   2.1125516  )
        65           H   tau(  65) = (   0.4917413   0.7985249   2.1125517  )
        66           H   tau(  66) = (   0.7707376   0.6469936   2.1125516  )

     number of k points=    10  gaussian smearing, width (Ry)=  0.0200
                       cart. coord. in units 2pi/alat
        k(    1) = (   0.0000000   0.0000000   0.0000000), wk =   0.1250000
        k(    2) = (   0.0000000   0.2886751   0.0000000), wk =   0.2500000
        k(    3) = (   0.0000000  -0.5773503   0.0000000), wk =   0.1250000
        k(    4) = (   0.2500000  -0.7216878   0.0000000), wk =   0.2500000
        k(    5) = (  -0.2500000   0.1443376   0.0000000), wk =   0.2500000
        k(    6) = (   0.2500000   0.1443376   0.0000000), wk =   0.2500000
        k(    7) = (   0.5000000  -0.2886751   0.0000000), wk =   0.1250000
        k(    8) = (  -0.5000000  -0.2886751   0.0000000), wk =   0.1250000
        k(    9) = (  -0.2500000  -0.7216878   0.0000000), wk =   0.2500000
        k(   10) = (  -0.5000000  -0.5773503   0.0000000), wk =   0.2500000

     Dense  grid:  2552337 G-vectors     FFT dimensions: ( 120, 120, 432)

     Smooth grid:   491295 G-vectors     FFT dimensions: (  72,  72, 243)

     Estimated max dynamical RAM per process >       1.14 GB

     Estimated total dynamical RAM >      18.26 GB

     Initial potential from superposition of free atoms
     Check: negative starting charge=   -0.000690

     starting charge 1001.99960, renormalised to 1056.00000

     negative rho (up, down):  7.276E-04 0.000E+00


     %%%%%%%%%%%%%%%%%%%%%%%%%%%%%%%%%%%%%%%%%%%%%%%%%%%%%%%%%%%%%%%%%%%%%%%%
     %                                                                      %
     % You are using vdW-DF, which was implemented by the Thonhauser group. %
     % Please cite the following two papers that made this development      %
     % possible and the two reviews that describe the various versions:     %
     %                                                                      %
     %   T. Thonhauser et al., PRL 115, 136402 (2015).                      %
     %   T. Thonhauser et al., PRB 76, 125112 (2007).                       %
     %   K. Berland et al., Rep. Prog. Phys. 78, 066501 (2015).             %
     %   D.C. Langreth et al., J. Phys.: Condens. Matter 21, 084203 (2009). %
     %                                                                      %
     %                                                                      %
     % If you are calculating the stress with vdW-DF, please also cite:     %
     %                                                                      %
     %   R. Sabatini et al., J. Phys.: Condens. Matter 24, 424209 (2012).   %
     %                                                                      %
     %%%%%%%%%%%%%%%%%%%%%%%%%%%%%%%%%%%%%%%%%%%%%%%%%%%%%%%%%%%%%%%%%%%%%%%%


     Starting wfcs are  732 randomized atomic wfcs

     total cpu time spent up to now is      163.4 secs

     Self-consistent Calculation

     iteration #  1     ecut=    50.00 Ry     beta= 0.30
     Davidson diagonalization with overlap
     ethr =  1.00E-02,  avg # of iterations =  5.5

     negative rho (up, down):  4.519E-04 0.000E+00

     total cpu time spent up to now is     1750.5 secs

     total energy              =  -19167.49514748 Ry
     Harris-Foulkes estimate   =  -22002.79434029 Ry
     estimated scf accuracy    <    5605.93563497 Ry

     iteration #  2     ecut=    50.00 Ry     beta= 0.30
     Davidson diagonalization with overlap
     c_bands:  1 eigenvalues not converged
     ethr =  1.00E-02,  avg # of iterations = 19.1

     negative rho (up, down):  4.796E-04 0.000E+00

     total cpu time spent up to now is     5389.2 secs

     total energy              =  -19205.78809388 Ry
     Harris-Foulkes estimate   =  -38280.95094623 Ry
     estimated scf accuracy    <  282309.50360397 Ry

     iteration #  3     ecut=    50.00 Ry     beta= 0.30
     Davidson diagonalization with overlap
     ethr =  1.00E-02,  avg # of iterations =  7.0

     negative rho (up, down):  5.526E-04 0.000E+00

     total cpu time spent up to now is     7142.0 secs

     total energy              =  -21691.72992674 Ry
     Harris-Foulkes estimate   =  -23258.60294076 Ry
     estimated scf accuracy    <   43710.58447625 Ry

     iteration #  4     ecut=    50.00 Ry     beta= 0.30
     Davidson diagonalization with overlap
     ethr =  1.00E-02,  avg # of iterations =  7.9

     negative rho (up, down):  5.434E-04 0.000E+00

     total cpu time spent up to now is     8383.9 secs

     total energy              =  -21709.23981619 Ry
     Harris-Foulkes estimate   =  -22085.25164462 Ry
     estimated scf accuracy    <    8074.02793831 Ry

     iteration #  5     ecut=    50.00 Ry     beta= 0.30
     Davidson diagonalization with overlap
     ethr =  1.00E-02,  avg # of iterations =  5.0

     negative rho (up, down):  6.346E-04 0.000E+00

     total cpu time spent up to now is     9519.1 secs

     total energy              =  -21807.43489403 Ry
     Harris-Foulkes estimate   =  -22008.56396118 Ry
     estimated scf accuracy    <    2473.22408859 Ry

     iteration #  6     ecut=    50.00 Ry     beta= 0.30
     Davidson diagonalization with overlap
     ethr =  1.00E-02,  avg # of iterations =  3.7

     negative rho (up, down):  7.445E-04 0.000E+00

     total cpu time spent up to now is    10127.8 secs

     total energy              =  -21886.11124940 Ry
     Harris-Foulkes estimate   =  -21969.69960256 Ry
     estimated scf accuracy    <     926.03016995 Ry

     iteration #  7     ecut=    50.00 Ry     beta= 0.30
     Davidson diagonalization with overlap
     ethr =  1.00E-02,  avg # of iterations =  3.3

     negative rho (up, down):  8.775E-04 0.000E+00

     total cpu time spent up to now is    10557.7 secs

     total energy              =  -21910.77434850 Ry
     Harris-Foulkes estimate   =  -21926.44918778 Ry
     estimated scf accuracy    <     115.58574263 Ry

     iteration #  8     ecut=    50.00 Ry     beta= 0.30
     Davidson diagonalization with overlap
     ethr =  1.00E-02,  avg # of iterations =  2.3

     negative rho (up, down):  9.765E-04 0.000E+00

     total cpu time spent up to now is    10913.8 secs

     total energy              =  -21910.96674039 Ry
     Harris-Foulkes estimate   =  -21916.63247227 Ry
     estimated scf accuracy    <     168.12162261 Ry

     iteration #  9     ecut=    50.00 Ry     beta= 0.30
     Davidson diagonalization with overlap
     ethr =  1.00E-02,  avg # of iterations =  1.4

     negative rho (up, down):  1.078E-03 0.000E+00

     total cpu time spent up to now is    11238.3 secs

     total energy              =  -21909.68902550 Ry
     Harris-Foulkes estimate   =  -21912.74010078 Ry
     estimated scf accuracy    <      70.40805486 Ry

     iteration # 10     ecut=    50.00 Ry     beta= 0.30
     Davidson diagonalization with overlap
     ethr =  6.67E-03,  avg # of iterations =  1.4

     negative rho (up, down):  1.506E-03 0.000E+00

     total cpu time spent up to now is    11547.4 secs

     total energy              =  -21898.92176331 Ry
     Harris-Foulkes estimate   =  -21910.46239764 Ry
     estimated scf accuracy    <     119.02408676 Ry

     iteration # 11     ecut=    50.00 Ry     beta= 0.30
     Davidson diagonalization with overlap
     ethr =  6.67E-03,  avg # of iterations =  4.3

     negative rho (up, down):  5.515E-04 0.000E+00

     total cpu time spent up to now is    12073.5 secs

     total energy              =  -21896.78313165 Ry
     Harris-Foulkes estimate   =  -21910.06138926 Ry
     estimated scf accuracy    <     168.71618954 Ry

     iteration # 12     ecut=    50.00 Ry     beta= 0.30
     Davidson diagonalization with overlap
     ethr =  6.67E-03,  avg # of iterations =  3.0

     negative rho (up, down):  4.894E-04 0.000E+00

     total cpu time spent up to now is    12450.3 secs

     total energy              =  -21902.97475193 Ry
     Harris-Foulkes estimate   =  -21904.40739935 Ry
     estimated scf accuracy    <      15.57241297 Ry

     iteration # 13     ecut=    50.00 Ry     beta= 0.30
     Davidson diagonalization with overlap
     ethr =  1.47E-03,  avg # of iterations =  4.1

     negative rho (up, down):  5.619E-04 0.000E+00

     total cpu time spent up to now is    12881.9 secs

     total energy              =  -21903.89193027 Ry
     Harris-Foulkes estimate   =  -21904.27741861 Ry
     estimated scf accuracy    <       2.97345673 Ry

     iteration # 14     ecut=    50.00 Ry     beta= 0.30
     Davidson diagonalization with overlap
     ethr =  2.82E-04,  avg # of iterations =  7.6

     negative rho (up, down):  6.620E-04 0.000E+00

     total cpu time spent up to now is    13475.4 secs

     total energy              =  -21903.86374667 Ry
     Harris-Foulkes estimate   =  -21904.01920772 Ry
     estimated scf accuracy    <       2.20749844 Ry

     iteration # 15     ecut=    50.00 Ry     beta= 0.30
     Davidson diagonalization with overlap
     ethr =  2.09E-04,  avg # of iterations =  1.5

     negative rho (up, down):  8.016E-04 0.000E+00

     total cpu time spent up to now is    13787.1 secs

     total energy              =  -21903.75239208 Ry
     Harris-Foulkes estimate   =  -21903.93857725 Ry
     estimated scf accuracy    <       1.42552776 Ry

     iteration # 16     ecut=    50.00 Ry     beta= 0.30
     Davidson diagonalization with overlap
     ethr =  1.35E-04,  avg # of iterations =  5.5

     negative rho (up, down):  1.017E-03 0.000E+00

     total cpu time spent up to now is    14281.0 secs

     total energy              =  -21903.76223577 Ry
     Harris-Foulkes estimate   =  -21903.81058131 Ry
     estimated scf accuracy    <       0.26077039 Ry

     iteration # 17     ecut=    50.00 Ry     beta= 0.30
     Davidson diagonalization with overlap
     ethr =  2.47E-05,  avg # of iterations =  7.6

     negative rho (up, down):  1.142E-03 0.000E+00

     total cpu time spent up to now is    14874.9 secs

     total energy              =  -21903.76709472 Ry
     Harris-Foulkes estimate   =  -21903.78168764 Ry
     estimated scf accuracy    <       0.14923841 Ry

     iteration # 18     ecut=    50.00 Ry     beta= 0.30
     Davidson diagonalization with overlap
     ethr =  1.41E-05,  avg # of iterations =  7.8

     negative rho (up, down):  1.442E-03 0.000E+00

     total cpu time spent up to now is    15453.4 secs

     total energy              =  -21903.76629468 Ry
     Harris-Foulkes estimate   =  -21903.77377430 Ry
     estimated scf accuracy    <       0.03594773 Ry

     iteration # 19     ecut=    50.00 Ry     beta= 0.30
     Davidson diagonalization with overlap
     ethr =  3.40E-06,  avg # of iterations =  9.0

     negative rho (up, down):  1.506E-03 0.000E+00

     total cpu time spent up to now is    16167.5 secs

     total energy              =  -21903.76759087 Ry
     Harris-Foulkes estimate   =  -21903.76871056 Ry
     estimated scf accuracy    <       0.00793812 Ry

     iteration # 20     ecut=    50.00 Ry     beta= 0.30
     Davidson diagonalization with overlap
     ethr =  7.52E-07,  avg # of iterations =  5.1

     negative rho (up, down):  1.858E-03 0.000E+00

     total cpu time spent up to now is    16626.1 secs

     total energy              =  -21903.76638732 Ry
     Harris-Foulkes estimate   =  -21903.76851170 Ry
     estimated scf accuracy    <       0.02874395 Ry

     iteration # 21     ecut=    50.00 Ry     beta= 0.30
     Davidson diagonalization with overlap
     ethr =  7.52E-07,  avg # of iterations =  7.1

     negative rho (up, down):  1.858E-03 0.000E+00

     total cpu time spent up to now is    17238.1 secs

     total energy              =  -21903.76716357 Ry
     Harris-Foulkes estimate   =  -21903.76765165 Ry
     estimated scf accuracy    <       0.00443795 Ry

     iteration # 22     ecut=    50.00 Ry     beta= 0.30
     Davidson diagonalization with overlap
     ethr =  4.20E-07,  avg # of iterations =  1.0

     negative rho (up, down):  1.997E-03 0.000E+00

     total cpu time spent up to now is    17538.7 secs

     total energy              =  -21903.76728978 Ry
     Harris-Foulkes estimate   =  -21903.76737993 Ry
     estimated scf accuracy    <       0.00049103 Ry

     iteration # 23     ecut=    50.00 Ry     beta= 0.30
     Davidson diagonalization with overlap
     ethr =  4.65E-08,  avg # of iterations =  3.2

     negative rho (up, down):  2.110E-03 0.000E+00

     total cpu time spent up to now is    17923.2 secs

     total energy              =  -21903.76730091 Ry
     Harris-Foulkes estimate   =  -21903.76733735 Ry
     estimated scf accuracy    <       0.00018740 Ry

     iteration # 24     ecut=    50.00 Ry     beta= 0.30
     Davidson diagonalization with overlap
     ethr =  1.77E-08,  avg # of iterations =  2.7

     negative rho (up, down):  2.144E-03 0.000E+00

     total cpu time spent up to now is    18293.6 secs

     total energy              =  -21903.76731521 Ry
     Harris-Foulkes estimate   =  -21903.76732481 Ry
     estimated scf accuracy    <       0.00007882 Ry

     iteration # 25     ecut=    50.00 Ry     beta= 0.30
     Davidson diagonalization with overlap
     ethr =  7.46E-09,  avg # of iterations =  3.2

     negative rho (up, down):  2.165E-03 0.000E+00

     total cpu time spent up to now is    18682.3 secs

     total energy              =  -21903.76732144 Ry
     Harris-Foulkes estimate   =  -21903.76732399 Ry
     estimated scf accuracy    <       0.00002287 Ry

     iteration # 26     ecut=    50.00 Ry     beta= 0.30
     Davidson diagonalization with overlap
     ethr =  2.17E-09,  avg # of iterations =  1.9

     negative rho (up, down):  2.191E-03 0.000E+00

     total cpu time spent up to now is    19016.0 secs

     total energy              =  -21903.76732335 Ry
     Harris-Foulkes estimate   =  -21903.76732437 Ry
     estimated scf accuracy    <       0.00001360 Ry

     iteration # 27     ecut=    50.00 Ry     beta= 0.30
     Davidson diagonalization with overlap
     ethr =  1.29E-09,  avg # of iterations =  2.0

     negative rho (up, down):  2.209E-03 0.000E+00

     total cpu time spent up to now is    19357.5 secs

     total energy              =  -21903.76732453 Ry
     Harris-Foulkes estimate   =  -21903.76732476 Ry
     estimated scf accuracy    <       0.00000696 Ry

     iteration # 28     ecut=    50.00 Ry     beta= 0.30
     Davidson diagonalization with overlap
     ethr =  6.59E-10,  avg # of iterations =  2.0

     negative rho (up, down):  2.238E-03 0.000E+00

     total cpu time spent up to now is    19696.5 secs

     total energy              =  -21903.76732511 Ry
     Harris-Foulkes estimate   =  -21903.76732514 Ry
     estimated scf accuracy    <       0.00000270 Ry

     iteration # 29     ecut=    50.00 Ry     beta= 0.30
     Davidson diagonalization with overlap
     ethr =  2.56E-10,  avg # of iterations =  2.0

     negative rho (up, down):  2.246E-03 0.000E+00

     total cpu time spent up to now is    20048.8 secs

     total energy              =  -21903.76732527 Ry
     Harris-Foulkes estimate   =  -21903.76732535 Ry
     estimated scf accuracy    <       0.00000045 Ry

     iteration # 30     ecut=    50.00 Ry     beta= 0.30
     Davidson diagonalization with overlap
     ethr =  4.29E-11,  avg # of iterations =  2.0

     negative rho (up, down):  2.250E-03 0.000E+00

     total cpu time spent up to now is    20394.0 secs

     total energy              =  -21903.76732530 Ry
     Harris-Foulkes estimate   =  -21903.76732534 Ry
     estimated scf accuracy    <       0.00000016 Ry

     iteration # 31     ecut=    50.00 Ry     beta= 0.30
     Davidson diagonalization with overlap
     ethr =  1.47E-11,  avg # of iterations =  2.0

     negative rho (up, down):  2.253E-03 0.000E+00

     total cpu time spent up to now is    20738.3 secs

     total energy              =  -21903.76732529 Ry
     Harris-Foulkes estimate   =  -21903.76732533 Ry
     estimated scf accuracy    <       0.00000048 Ry

     iteration # 32     ecut=    50.00 Ry     beta= 0.30
     Davidson diagonalization with overlap
     ethr =  1.47E-11,  avg # of iterations =  2.0

     negative rho (up, down):  2.256E-03 0.000E+00

     total cpu time spent up to now is    21074.9 secs

     total energy              =  -21903.76732528 Ry
     Harris-Foulkes estimate   =  -21903.76732531 Ry
     estimated scf accuracy    <       0.00000010 Ry

     iteration # 33     ecut=    50.00 Ry     beta= 0.30
     Davidson diagonalization with overlap
     ethr =  9.90E-12,  avg # of iterations =  2.0

     negative rho (up, down):  2.258E-03 0.000E+00

     total cpu time spent up to now is    21416.4 secs

     total energy              =  -21903.76732527 Ry
     Harris-Foulkes estimate   =  -21903.76732529 Ry
     estimated scf accuracy    <       0.00000001 Ry

     iteration # 34     ecut=    50.00 Ry     beta= 0.30
     Davidson diagonalization with overlap
     ethr =  1.06E-12,  avg # of iterations =  2.0

     negative rho (up, down):  2.259E-03 0.000E+00

     total cpu time spent up to now is    21769.8 secs

     End of self-consistent calculation

          k = 0.0000 0.0000 0.0000 ( 61453 PWs)   bands (ev):

  -107.9002-107.8951-107.8939-107.8937-107.8937-107.8935-107.8935-107.8930
  -107.8913-107.8902-107.8902-107.8901-107.8901-107.8896-107.8896-107.8893
  -107.8888-107.8886-107.8868-107.8842-107.8842-107.8842-107.8837-107.8837
  -107.8836-107.8814-107.8814-107.8795-107.8753-107.8749-107.8749-107.8748
  -107.8748-107.8744-107.8725-107.8724-107.6568-107.6526-107.6526-107.6526
  -107.6512-107.6512-107.6489-107.6468-107.6468-107.6410-107.6359-107.6359
  -107.6359-107.6358-107.6358-107.6358-107.6333-107.6333 -65.3546 -65.3414
   -65.3411 -65.3411 -65.3407 -65.3407 -65.3404 -65.3334 -65.3334 -65.3334
   -65.3331 -65.3331 -65.3328 -65.3328 -65.3326 -65.3293 -65.3293 -65.3292
   -65.3290 -65.3271 -65.3213 -65.3213 -65.3212 -65.3208 -65.3207 -65.3206
   -65.3187 -65.3187 -65.3187 -65.3185 -65.3184 -65.3182 -65.3180 -65.3180
   -65.3154 -65.3154 -65.3150 -65.3149 -65.3093 -65.3093 -65.3092 -65.3089
   -65.3089 -65.3089 -65.3080 -65.3080 -65.3045 -65.3045 -65.3023 -65.3013
   -65.3012 -65.3010 -65.3010 -65.3009 -65.3009 -65.3007 -65.2996 -65.2941
   -65.2941 -65.2930 -65.2930 -65.2929 -65.2927 -65.2927 -65.2927 -65.2908
   -65.2908 -65.2908 -65.2903 -65.2900 -65.2900 -65.2894 -65.2894 -65.2868
   -65.2868 -65.2830 -65.2827 -65.2827 -65.2826 -65.2825 -65.2825 -65.2825
   -65.2825 -65.2822 -65.2820 -65.2818 -65.2818 -65.2792 -65.2764 -65.2764
   -65.2760 -65.2759 -65.2759 -65.2758 -65.2757 -65.2757 -65.2700 -65.2700
   -65.2682 -65.2682 -65.2681 -65.2680 -65.2679 -65.2679 -65.2639 -65.2639
   -65.2573 -65.2573 -65.1099 -65.1095 -65.1095 -65.1085 -65.1085 -65.1084
   -65.1058 -65.1057 -65.1057 -65.1045 -65.0952 -65.0952 -65.0952 -65.0951
   -65.0951 -65.0951 -65.0926 -65.0926 -65.0922 -65.0921 -65.0747 -65.0739
   -65.0739 -65.0727 -65.0727 -65.0721 -65.0610 -65.0610 -65.0598 -65.0598
   -65.0598 -65.0598 -65.0598 -65.0597 -65.0476 -65.0476 -65.0318 -65.0280
   -65.0279 -65.0279 -65.0266 -65.0266 -65.0235 -65.0216 -65.0215 -65.0131
   -65.0083 -65.0083 -65.0083 -65.0083 -65.0082 -65.0082 -65.0059 -65.0059
   -12.4750  -9.7351  -9.7348  -6.1495  -6.1490  -4.2278  -4.1646  -3.5436
    -2.6389  -2.5914  -2.2322  -1.5887  -1.5886  -1.4606  -1.1994  -1.1992
    -1.1992  -1.1991  -1.1991  -1.1990  -0.7948  -0.7943  -0.7943  -0.7943
    -0.7942  -0.7942  -0.6032  -0.3433  -0.2961  -0.2937  -0.2936  -0.2936
    -0.2935  -0.2935  -0.2662   0.1570   0.1570   0.1571   0.1572   0.1572
     0.1587   0.3448   0.3451   0.5070   0.5070   0.5072   0.5075   0.5075
     0.5081   0.6318   0.6318   0.6319   0.6319   0.6319   0.6320   0.6815
     0.6815   0.6816   0.6817   0.6817   0.6819   0.7093   0.7093   0.7231
     0.7231   0.7349   0.7350   0.8306   0.8307   0.8379   0.8379   0.8606
     0.8606   0.8606   0.8607   0.8607   0.8610   0.8682   0.8682   0.8692
     0.8692   0.9215   0.9215   0.9609   0.9609   1.0703   1.0703   1.0741
     1.0741   1.0743   1.0743   1.0743   1.0748   1.1056   1.1056   1.3100
     1.3100   1.3103   1.3107   1.3107   1.3114   1.4387   1.4387   1.4467
     1.4467   1.4622   1.4622   1.4625   1.4625   1.4625   1.4629   1.5004
     1.5074   1.5074   1.5205   1.5755   1.5755   1.5758   1.5759   1.5759
     1.5762   1.5889   1.5889   1.6135   1.6135   1.6456   1.6501   1.6501
     1.6619   1.6619   1.6625   1.6625   1.6625   1.6627   1.7000   1.7000
     1.7136   1.7136   1.7137   1.7137   1.7138   1.7139   1.7325   1.7326
     1.7326   1.7328   1.7328   1.7328   1.7387   1.7387   1.7565   1.8613
     1.8613   1.8631   1.8632   1.8647   1.8647   1.8650   1.8657   1.8772
     1.8772   1.8922   1.8924   1.9088   1.9088   1.9090   1.9091   1.9334
     1.9334   1.9349   1.9350   1.9350   1.9353   1.9353   1.9353   2.1191
     2.1191   2.1301   2.1304   2.1304   2.1320   2.1939   2.1941   2.1941
     2.1942   2.1942   2.1944   2.2443   2.2443   2.2622   2.2622   2.2623
     2.2637   2.2687   2.2687   2.2730   2.2730   2.2948   2.2948   2.3317
     2.3610   2.3610   2.3727   2.3727   2.3908   2.3908   2.4003   2.4006
     2.4006   2.4016   2.4244   2.4245   2.4245   2.4248   2.4248   2.4248
     2.4276   2.4276   2.4281   2.4281   2.4464   2.4465   2.4991   2.4991
     2.5631   2.5632   2.5632   2.5633   2.5633   2.5633   2.6213   2.6217
     2.6217   2.6221   2.6222   2.6222   2.6223   2.6223   2.6223   2.6228
     2.6273   2.6274   2.6878   2.6878   2.6913   2.6913   2.6914   2.6916
     2.6917   2.6917   2.7027   2.7027   2.7027   2.7030   2.7030   2.7030
     2.7274   2.7275   2.7275   2.7277   2.7277   2.7277   2.7617   2.7617
     2.7679   2.7679   2.7993   2.7994   2.7994   2.7999   2.7999   2.7999
     2.8010   2.8010   2.8232   2.8234   2.8234   2.8237   2.8237   2.8238
     2.8526   2.8526   2.8537   2.8537   2.8567   2.8567   2.8746   2.8747
     2.8910   2.8911   2.8911   2.8913   2.8913   2.8914   2.9178   2.9179
     2.9179   2.9180   2.9180   2.9210   2.9327   2.9327   2.9676   2.9677
     2.9677   2.9679   2.9679   2.9680   3.7793   3.9023   3.9025   3.9025
     3.9103   3.9167   3.9167   4.3617   5.3364   5.3364   5.3380   5.3492
     5.3586   5.3586   7.0660   7.0661   7.0666   7.1168   7.1636   7.1636
     7.2519   7.5301   7.5303   7.7600   7.7600   7.7604   7.7604   7.7756
     7.7756   8.1546   8.1546   8.1550   8.1730   8.1730   8.5218   8.5754
     8.5758   8.7734   8.8330   8.8333   8.8504   8.8504   8.9246   8.9246
     8.9683   9.1646   9.4469   9.4469   9.4530   9.4530   9.4938   9.7848
     9.7849   9.8317   9.8318   9.8821  10.4895  10.5531  10.6176  10.6176
    10.6241  10.6241  10.7541  10.7541  10.8045  10.8046  10.8100  11.0269
    11.1983  11.1983  11.2588  11.2588  11.2642  11.2842  11.2842  11.3408
    11.3877  11.7124  11.7124  11.7718  11.7718  11.7718  11.8259  11.8259
    11.8368  11.8368  11.8371  11.9368  11.9368  11.9941  12.0911  12.1943
    12.1943  12.2277  12.2871  12.2871  12.3339  12.4569  12.4569  12.6687
    12.9240  12.9299  12.9300  12.9606  12.9676  12.9727  12.9727  13.0187
    13.0592  13.0717

          k = 0.0000 0.2887 0.0000 ( 61417 PWs)   bands (ev):

  -107.8997-107.8960-107.8947-107.8945-107.8940-107.8926-107.8924-107.8919
  -107.8916-107.8907-107.8906-107.8901-107.8901-107.8897-107.8895-107.8889
  -107.8886-107.8884-107.8868-107.8856-107.8846-107.8845-107.8832-107.8831
  -107.8826-107.8816-107.8816-107.8791-107.8765-107.8754-107.8754-107.8741
  -107.8741-107.8736-107.8727-107.8725-107.6564-107.6538-107.6528-107.6522
  -107.6511-107.6510-107.6488-107.6468-107.6467-107.6405-107.6376-107.6365
  -107.6365-107.6350-107.6350-107.6346-107.6335-107.6335 -65.3532 -65.3440
   -65.3436 -65.3423 -65.3412 -65.3412 -65.3407 -65.3406 -65.3374 -65.3374
   -65.3367 -65.3366 -65.3348 -65.3347 -65.3302 -65.3287 -65.3287 -65.3266
   -65.3261 -65.3250 -65.3249 -65.3248 -65.3247 -65.3245 -65.3223 -65.3223
   -65.3220 -65.3219 -65.3177 -65.3177 -65.3146 -65.3145 -65.3144 -65.3132
   -65.3132 -65.3126 -65.3119 -65.3119 -65.3097 -65.3097 -65.3073 -65.3073
   -65.3040 -65.3037 -65.3036 -65.3032 -65.3024 -65.3023 -65.3017 -65.3005
   -65.3003 -65.2992 -65.2991 -65.2977 -65.2976 -65.2975 -65.2967 -65.2960
   -65.2959 -65.2939 -65.2937 -65.2937 -65.2935 -65.2934 -65.2933 -65.2908
   -65.2907 -65.2886 -65.2885 -65.2879 -65.2878 -65.2863 -65.2862 -65.2859
   -65.2853 -65.2852 -65.2851 -65.2848 -65.2847 -65.2846 -65.2846 -65.2829
   -65.2828 -65.2810 -65.2809 -65.2806 -65.2799 -65.2793 -65.2789 -65.2788
   -65.2787 -65.2781 -65.2775 -65.2752 -65.2752 -65.2736 -65.2719 -65.2719
   -65.2719 -65.2710 -65.2707 -65.2683 -65.2683 -65.2675 -65.2650 -65.2644
   -65.2614 -65.2582 -65.1203 -65.1149 -65.1149 -65.1133 -65.1131 -65.1067
   -65.1016 -65.1015 -65.1011 -65.1010 -65.0999 -65.0999 -65.0958 -65.0958
   -65.0927 -65.0880 -65.0879 -65.0823 -65.0822 -65.0793 -65.0779 -65.0774
   -65.0761 -65.0732 -65.0731 -65.0692 -65.0652 -65.0639 -65.0638 -65.0628
   -65.0621 -65.0598 -65.0597 -65.0557 -65.0519 -65.0487 -65.0314 -65.0290
   -65.0281 -65.0275 -65.0264 -65.0264 -65.0235 -65.0216 -65.0215 -65.0127
   -65.0099 -65.0089 -65.0089 -65.0075 -65.0075 -65.0071 -65.0061 -65.0061
   -12.4741  -9.7387  -9.7356  -6.1523  -6.1449  -4.2014  -3.9513  -3.3344
    -2.6115  -2.3904  -2.3482  -2.2358  -1.7993  -1.6382  -1.6375  -1.6362
    -1.5955  -1.2727  -1.1527  -1.1524  -0.9971  -0.5811  -0.5811  -0.4920
    -0.4887  -0.4478  -0.3699  -0.3066  -0.2946  -0.2930  -0.1594  -0.1263
    -0.1218  -0.0241  -0.0194  -0.0193   0.1573   0.1583   0.1870   0.2525
     0.2527   0.3048   0.3453   0.4368   0.4413   0.4710   0.4710   0.4979
     0.5070   0.5070   0.5312   0.5313   0.5783   0.5789   0.5806   0.5809
     0.5935   0.5935   0.6333   0.6333   0.6704   0.6704   0.6986   0.6986
     0.7077   0.7494   0.7496   0.7641   0.7641   0.7868   0.7869   0.7997
     0.7997   0.8341   0.8341   0.8741   0.9429   0.9429   0.9499   0.9732
     0.9732   0.9878   0.9879   1.0242   1.0242   1.0581   1.0610   1.0610
     1.1229   1.1229   1.1497   1.1502   1.1707   1.1707   1.2157   1.2158
     1.2328   1.2526   1.2598   1.2599   1.2881   1.3276   1.3277   1.3477
     1.3478   1.3541   1.3919   1.3926   1.4024   1.4277   1.4277   1.4345
     1.4676   1.4677   1.4968   1.5336   1.5452   1.5558   1.5559   1.5686
     1.5690   1.5691   1.6075   1.6082   1.6128   1.6254   1.6255   1.6409
     1.6465   1.6465   1.6628   1.6659   1.6768   1.6836   1.6956   1.7045
     1.7046   1.7148   1.7197   1.7205   1.7213   1.7390   1.7393   1.7425
     1.7425   1.7466   1.7668   1.7691   1.7802   1.7922   1.7928   1.8011
     1.8026   1.8167   1.8170   1.8533   1.8533   1.8617   1.8618   1.8634
     1.8775   1.8864   1.8864   1.8871   1.8981   1.8998   1.9034   1.9179
     1.9569   1.9613   1.9663   1.9719   1.9725   1.9730   1.9835   1.9968
     2.0020   2.0027   2.0042   2.0258   2.0259   2.0394   2.0752   2.0771
     2.1089   2.1095   2.1178   2.1184   2.1238   2.1238   2.1868   2.2023
     2.2281   2.2293   2.2373   2.2373   2.2498   2.2499   2.2668   2.2781
     2.2855   2.2900   2.2914   2.2980   2.3234   2.3241   2.3507   2.3530
     2.3617   2.3682   2.3688   2.3773   2.3879   2.4030   2.4084   2.4099
     2.4164   2.4253   2.4456   2.4611   2.4629   2.4677   2.4680   2.4848
     2.4892   2.4895   2.5055   2.5093   2.5094   2.5105   2.5183   2.5221
     2.5470   2.5572   2.5939   2.5972   2.6036   2.6315   2.6321   2.6399
     2.6434   2.6436   2.6445   2.6473   2.6681   2.6683   2.6715   2.6836
     2.6852   2.6885   2.6916   2.6920   2.7176   2.7367   2.7367   2.7415
     2.7509   2.7509   2.7727   2.7730   2.7791   2.7799   2.8229   2.8239
     2.8239   2.8351   2.8351   2.8367   2.8481   2.8488   2.8575   2.8590
     2.8590   2.8605   2.8675   2.8676   2.8684   2.8747   2.8830   2.8830
     2.9004   2.9134   2.9135   2.9142   2.9154   2.9217   2.9231   2.9232
     2.9452   2.9546   2.9589   2.9651   2.9652   2.9701   2.9828   2.9830
     3.0598   3.0722   3.1091   3.2085   3.2308   3.2308   3.3027   3.3915
     3.3915   3.6452   3.6983   3.6992   3.7019   3.7070   4.0110   4.1907
     4.3862   4.6740   4.6742   4.8748   4.9713   4.9775   5.0231   5.7572
     5.7572   5.9711   6.1340   6.1383   6.1568   6.1570   6.4116   6.6654
     6.6937   6.8399   6.8422   7.2737   7.4488   7.4593   7.4917   7.6572
     7.6919   7.6995   7.8884   7.9337   8.1516   8.1547   8.2520   8.2966
     8.3508   8.6257   8.6265   8.7537   8.8033   8.9003   9.1771   9.1779
     9.2874   9.3444   9.5496   9.5734   9.7526   9.7829   9.9059   9.9269
     9.9338   9.9647   9.9895  10.0373  10.2588  10.3273  10.3276  10.4530
    10.4902  10.4923  10.5799  10.5881  10.6670  10.7105  10.7142  10.7857
    10.8431  10.8772  10.8888  11.1014  11.1088  11.1987  11.3835  11.4152
    11.4207  11.4550  11.4638  11.5607  11.6562  11.7404  11.8923  11.9852
    12.0416  12.1232  12.1726  12.2606  12.2768  12.3665  12.4789  12.5058
    12.5107  12.5533  12.5657  12.6503  12.7806  12.7823  12.8280  12.8449
    12.9459  12.9549  13.0710  13.0909  13.1364  13.1644  13.1710  13.2598
    13.3756  13.4549

          k = 0.0000-0.5774 0.0000 ( 61408 PWs)   bands (ev):

  -107.8983-107.8979-107.8949-107.8948-107.8935-107.8927-107.8918-107.8913
  -107.8911-107.8910-107.8909-107.8907-107.8905-107.8896-107.8890-107.8889
  -107.8886-107.8874-107.8871-107.8867-107.8848-107.8847-107.8825-107.8825
  -107.8824-107.8819-107.8819-107.8782-107.8778-107.8757-107.8756-107.8737
  -107.8733-107.8733-107.8733-107.8727-107.6557-107.6548-107.6529-107.6522
  -107.6509-107.6508-107.6487-107.6468-107.6467-107.6393-107.6393-107.6367
  -107.6367-107.6342-107.6342-107.6341-107.6341-107.6341 -65.3494 -65.3491
   -65.3467 -65.3452 -65.3413 -65.3413 -65.3401 -65.3400 -65.3396 -65.3395
   -65.3384 -65.3383 -65.3382 -65.3379 -65.3342 -65.3277 -65.3272 -65.3272
   -65.3267 -65.3267 -65.3265 -65.3264 -65.3256 -65.3254 -65.3230 -65.3230
   -65.3227 -65.3226 -65.3155 -65.3154 -65.3142 -65.3141 -65.3139 -65.3137
   -65.3123 -65.3086 -65.3086 -65.3055 -65.3049 -65.3048 -65.3048 -65.3046
   -65.3044 -65.3039 -65.3019 -65.3018 -65.3013 -65.3012 -65.3010 -65.3009
   -65.2978 -65.2978 -65.2977 -65.2969 -65.2969 -65.2967 -65.2965 -65.2951
   -65.2919 -65.2917 -65.2913 -65.2913 -65.2911 -65.2905 -65.2904 -65.2904
   -65.2903 -65.2903 -65.2902 -65.2898 -65.2872 -65.2872 -65.2869 -65.2868
   -65.2863 -65.2859 -65.2842 -65.2841 -65.2832 -65.2831 -65.2830 -65.2829
   -65.2818 -65.2816 -65.2814 -65.2809 -65.2799 -65.2798 -65.2798 -65.2792
   -65.2791 -65.2789 -65.2789 -65.2758 -65.2757 -65.2757 -65.2756 -65.2742
   -65.2737 -65.2720 -65.2718 -65.2717 -65.2697 -65.2697 -65.2680 -65.2678
   -65.2610 -65.2607 -65.1245 -65.1172 -65.1172 -65.1159 -65.1157 -65.1109
   -65.1030 -65.1030 -65.1030 -65.1029 -65.0979 -65.0978 -65.0863 -65.0861
   -65.0848 -65.0847 -65.0843 -65.0843 -65.0779 -65.0774 -65.0768 -65.0741
   -65.0734 -65.0719 -65.0719 -65.0719 -65.0718 -65.0659 -65.0644 -65.0639
   -65.0635 -65.0635 -65.0608 -65.0607 -65.0517 -65.0517 -65.0308 -65.0298
   -65.0281 -65.0274 -65.0263 -65.0263 -65.0235 -65.0216 -65.0215 -65.0115
   -65.0115 -65.0091 -65.0091 -65.0067 -65.0067 -65.0067 -65.0066 -65.0066
   -12.4733  -9.7422  -9.7364  -6.1556  -6.1402  -4.1745  -3.3257  -3.3255
    -2.7262  -2.7261  -2.5836  -2.2396  -1.8177  -1.8164  -1.7930  -1.7930
    -1.6838  -1.6027  -1.2824  -1.2820  -0.7615  -0.7534  -0.5616  -0.5594
    -0.3198  -0.1805   0.0032   0.0060   0.0164   0.0235   0.0236   0.0237
     0.0237   0.1114   0.1850   0.1852   0.1929   0.1954   0.2028   0.2215
     0.2215   0.2216   0.2216   0.2653   0.2777   0.2778   0.2778   0.2780
     0.3454   0.4044   0.4426   0.4426   0.4428   0.4429   0.4832   0.5247
     0.6196   0.6196   0.6197   0.6197   0.6349   0.6571   0.6577   0.6742
     0.6742   0.6743   0.6743   0.7937   0.7937   0.7938   0.7939   0.8165
     0.8167   0.9058   0.9183   0.9183   0.9183   0.9184   0.9538   0.9538
     0.9985   0.9985   1.0702   1.0703   1.0704   1.0705   1.1306   1.1306
     1.1597   1.1599   1.1812   1.1812   1.1815   1.1816   1.1982   1.1982
     1.2351   1.2362   1.2872   1.2990   1.2993   1.3273   1.3276   1.3484
     1.3490   1.3566   1.3567   1.3569   1.3570   1.4136   1.4141   1.4187
     1.4187   1.4190   1.4190   1.4699   1.4713   1.4933   1.4933   1.4934
     1.4935   1.5032   1.5048   1.5048   1.5647   1.5669   1.5885   1.5895
     1.5902   1.6061   1.6082   1.6405   1.6413   1.6413   1.6415   1.6415
     1.6555   1.6570   1.7045   1.7046   1.7150   1.7152   1.7281   1.7281
     1.7626   1.7628   1.7628   1.7629   1.7856   1.7861   1.7863   1.7865
     1.7873   1.8164   1.8166   1.8168   1.8171   1.8481   1.8484   1.8682
     1.8774   1.8776   1.9398   1.9404   1.9462   1.9463   1.9507   1.9508
     1.9512   1.9512   1.9599   1.9606   1.9665   1.9666   1.9767   1.9936
     1.9944   2.0021   2.0024   2.0026   2.0029   2.0706   2.0737   2.0822
     2.0822   2.1523   2.1638   2.1648   2.1650   2.1678   2.1717   2.1736
     2.1737   2.1746   2.1788   2.1791   2.2034   2.2053   2.2282   2.2440
     2.2448   2.2449   2.2472   2.2643   2.2643   2.2644   2.2644   2.2679
     2.2685   2.2902   2.2905   2.2971   2.2974   2.3262   2.3733   2.3741
     2.4204   2.4204   2.4277   2.4482   2.4482   2.4489   2.4500   2.4805
     2.4813   2.4845   2.4983   2.5204   2.5212   2.5240   2.5241   2.5348
     2.5478   2.5545   2.5607   2.5608   2.5609   2.5611   2.5739   2.5948
     2.5948   2.5959   2.5973   2.6505   2.6507   2.6508   2.6511   2.6612
     2.6619   2.6876   2.6880   2.7177   2.7178   2.7207   2.7212   2.7483
     2.7483   2.7737   2.7761   2.7789   2.7974   2.8372   2.8386   2.8487
     2.8493   2.8587   2.8591   2.8727   2.8865   2.8866   2.8910   2.8912
     2.8923   2.8928   2.9080   2.9129   2.9129   2.9132   2.9133   2.9302
     2.9317   2.9319   2.9367   2.9404   2.9568   2.9598   2.9798   2.9799
     2.9803   2.9809   2.9877   2.9933   3.0165   3.0300   3.0301   3.0306
     3.0306   3.1395   3.1513   3.6707   3.6794   3.6817   3.6853   4.1982
     4.2416   4.2416   4.2418   4.2418   4.5126   4.5128   4.5131   4.5132
     4.8636   4.8661   4.8761   4.9808   4.9995   5.0702   5.0714   5.0721
     5.0728   5.3574   5.6967   5.9493   5.9733   5.9754   6.0498   6.0551
     6.0562   6.0584   6.1139   6.5218   6.5539   7.2925   7.3563   7.3659
     7.3664   7.4325   7.6035   7.9622   7.9825   8.0821   8.2235   8.3635
     8.4882   8.4894   8.4906   8.5016   8.8604   8.8829   8.8995   9.1378
     9.1392   9.1393   9.1449   9.2734   9.4589   9.5665   9.6937   9.7651
     9.7672   9.7951   9.8041   9.8444   9.8677  10.2397  10.3189  10.3251
    10.3789  10.4186  10.4395  10.4429  10.4563  10.8093  10.8800  11.0229
    11.1125  11.1948  11.2323  11.2376  11.2919  11.3368  11.3669  11.3847
    11.4606  11.5274  11.6597  12.0213  12.0924  12.1379  12.1506  12.1982
    12.2228  12.2851  12.4341  12.4880  12.7146  12.8154  12.8223  12.9260
    12.9363  12.9754  13.0046  13.0183  13.0402  13.1663  13.1733  13.1837
    13.1880  13.2444  13.2748  13.3514  13.4037  13.5782  13.6115  13.6142
    13.6646  13.7586

          k = 0.2500-0.7217 0.0000 ( 61343 PWs)   bands (ev):

  -107.8986-107.8969-107.8964-107.8938-107.8928-107.8927-107.8924-107.8918
  -107.8914-107.8910-107.8909-107.8905-107.8901-107.8895-107.8892-107.8888
  -107.8886-107.8876-107.8868-107.8863-107.8860-107.8835-107.8832-107.8825
  -107.8824-107.8819-107.8817-107.8784-107.8771-107.8768-107.8745-107.8742
  -107.8735-107.8733-107.8731-107.8727-107.6558-107.6546-107.6533-107.6518
  -107.6510-107.6508-107.6487-107.6469-107.6467-107.6397-107.6382-107.6382
  -107.6353-107.6352-107.6342-107.6342-107.6341-107.6338 -65.3505 -65.3459
   -65.3456 -65.3447 -65.3444 -65.3434 -65.3432 -65.3418 -65.3401 -65.3385
   -65.3383 -65.3372 -65.3344 -65.3325 -65.3321 -65.3321 -65.3319 -65.3293
   -65.3262 -65.3258 -65.3256 -65.3254 -65.3252 -65.3237 -65.3236 -65.3226
   -65.3218 -65.3217 -65.3189 -65.3186 -65.3135 -65.3133 -65.3129 -65.3122
   -65.3097 -65.3095 -65.3087 -65.3085 -65.3083 -65.3053 -65.3048 -65.3046
   -65.3035 -65.3029 -65.3026 -65.3025 -65.3015 -65.2986 -65.2984 -65.2983
   -65.2981 -65.2981 -65.2979 -65.2966 -65.2964 -65.2962 -65.2959 -65.2944
   -65.2942 -65.2929 -65.2927 -65.2925 -65.2923 -65.2919 -65.2902 -65.2890
   -65.2888 -65.2888 -65.2886 -65.2881 -65.2878 -65.2872 -65.2871 -65.2869
   -65.2867 -65.2855 -65.2853 -65.2845 -65.2840 -65.2839 -65.2835 -65.2820
   -65.2818 -65.2810 -65.2809 -65.2809 -65.2808 -65.2807 -65.2806 -65.2804
   -65.2786 -65.2784 -65.2779 -65.2760 -65.2759 -65.2751 -65.2749 -65.2749
   -65.2740 -65.2739 -65.2717 -65.2707 -65.2707 -65.2698 -65.2661 -65.2642
   -65.2642 -65.2604 -65.1226 -65.1218 -65.1193 -65.1127 -65.1093 -65.1086
   -65.1086 -65.1081 -65.1058 -65.0992 -65.0952 -65.0952 -65.0895 -65.0877
   -65.0864 -65.0860 -65.0814 -65.0803 -65.0798 -65.0790 -65.0757 -65.0737
   -65.0731 -65.0728 -65.0728 -65.0686 -65.0683 -65.0671 -65.0670 -65.0662
   -65.0662 -65.0643 -65.0596 -65.0550 -65.0550 -65.0510 -65.0308 -65.0297
   -65.0285 -65.0272 -65.0264 -65.0263 -65.0235 -65.0216 -65.0215 -65.0119
   -65.0105 -65.0104 -65.0077 -65.0077 -65.0067 -65.0067 -65.0066 -65.0063
   -12.4733  -9.7408  -9.7378  -6.1517  -6.1441  -4.1747  -3.5312  -2.9250
    -2.7250  -2.7249  -2.5834  -2.2393  -2.1504  -2.1503  -2.0018  -1.6656
    -1.6244  -1.2918  -1.2907  -0.9185  -0.7143  -0.7142  -0.3722  -0.3634
    -0.3604  -0.3188  -0.2768  -0.1234  -0.1234  -0.1140   0.0519   0.0523
     0.0712   0.0713   0.0875   0.1373   0.1496   0.1497   0.1667   0.2653
     0.2690   0.2724   0.2724   0.2840   0.3253   0.3471   0.3492   0.4106
     0.4108   0.4226   0.4334   0.4607   0.4608   0.4638   0.4825   0.4830
     0.5513   0.5515   0.5758   0.5780   0.6083   0.6083   0.6329   0.6423
     0.6424   0.7115   0.7115   0.7376   0.7603   0.7703   0.7705   0.8460
     0.8470   0.8973   0.9167   0.9168   0.9466   0.9467   1.0035   1.0127
     1.0129   1.0281   1.0281   1.0432   1.0810   1.1086   1.1087   1.1507
     1.1509   1.1784   1.1841   1.1843   1.1855   1.2016   1.2017   1.2617
     1.2620   1.2646   1.2646   1.2673   1.2803   1.2968   1.2978   1.3113
     1.3116   1.3392   1.3399   1.3629   1.3653   1.3657   1.3847   1.4084
     1.4494   1.4576   1.4578   1.4583   1.4589   1.4881   1.5070   1.5112
     1.5117   1.5485   1.5485   1.5498   1.5524   1.5584   1.5814   1.6029
     1.6030   1.6203   1.6204   1.6473   1.6479   1.6568   1.6569   1.6707
     1.6711   1.6847   1.6849   1.7025   1.7027   1.7170   1.7261   1.7499
     1.7648   1.7661   1.7678   1.7860   1.7886   1.7890   1.7956   1.8043
     1.8046   1.8132   1.8133   1.8274   1.8330   1.8334   1.8335   1.8416
     1.8555   1.8605   1.8841   1.9018   1.9027   1.9112   1.9133   1.9138
     1.9201   1.9213   1.9215   1.9242   1.9295   1.9354   1.9369   1.9377
     1.9971   1.9979   2.0587   2.0592   2.0682   2.0718   2.0719   2.0770
     2.0997   2.0999   2.1193   2.1214   2.1236   2.1426   2.1583   2.1592
     2.1894   2.1905   2.2023   2.2320   2.2322   2.2356   2.2360   2.2399
     2.2419   2.2421   2.2485   2.2538   2.2612   2.2615   2.2976   2.3185
     2.3240   2.3269   2.3284   2.3324   2.3428   2.3470   2.3566   2.3696
     2.3793   2.3885   2.3944   2.4230   2.4268   2.4372   2.4445   2.4486
     2.4549   2.4578   2.4884   2.4978   2.5026   2.5031   2.5297   2.5299
     2.5512   2.5579   2.5585   2.5767   2.5774   2.6004   2.6006   2.6013
     2.6051   2.6074   2.6210   2.6213   2.6258   2.6315   2.6339   2.6509
     2.6894   2.6967   2.6969   2.6987   2.7472   2.7475   2.7569   2.7580
     2.7896   2.8026   2.8029   2.8085   2.8087   2.8241   2.8266   2.8531
     2.8535   2.8536   2.8633   2.8634   2.8754   2.8769   2.8780   2.8781
     2.8797   2.8876   2.8877   2.8882   2.8908   2.9055   2.9059   2.9213
     2.9219   2.9255   2.9321   2.9322   2.9436   2.9597   2.9643   2.9702
     2.9705   2.9877   3.0198   3.0201   3.0300   3.0516   3.0519   3.2048
     3.2081   3.3191   3.3192   3.4217   3.4219   3.5219   3.7469   3.7483
     4.1247   4.1333   4.2303   4.2304   4.2432   4.5063   4.6178   4.6214
     4.6386   4.6387   4.7574   5.0850   5.1126   5.1134   5.5558   5.5973
     5.6137   5.6514   5.8488   5.8698   5.8713   6.0021   6.0065   6.0930
     6.1638   6.5374   6.6167   6.6182   6.7932   6.8441   6.9395   6.9937
     6.9943   7.2922   7.4175   7.4473   7.5564   7.7653   7.8162   7.9206
     8.4122   8.4143   8.4602   8.5180   8.7064   9.0521   9.0788   9.1169
     9.1894   9.2704   9.3309   9.4255   9.4331   9.5890   9.6226   9.6497
     9.7666   9.8056  10.0075  10.1128  10.1282  10.3086  10.3639  10.4699
    10.4886  10.5554  10.6279  10.7530  10.7845  11.0150  11.1054  11.1480
    11.2455  11.2961  11.3842  11.4217  11.4270  11.5801  11.6180  11.6519
    11.6686  11.7453  11.7894  11.8329  11.9535  12.0598  12.0735  12.1881
    12.2577  12.3172  12.3366  12.3691  12.4341  12.4439  12.5098  12.5729
    12.6674  12.6948  12.7794  12.9016  12.9295  12.9526  13.1327  13.2168
    13.2498  13.2876  13.3516  13.3705  13.4453  13.4648  13.5304  13.6017
    13.6382  13.6552

          k =-0.2500 0.1443 0.0000 ( 61417 PWs)   bands (ev):

  -107.8997-107.8960-107.8947-107.8945-107.8940-107.8926-107.8924-107.8919
  -107.8916-107.8907-107.8906-107.8901-107.8901-107.8897-107.8895-107.8889
  -107.8886-107.8884-107.8868-107.8856-107.8846-107.8845-107.8832-107.8831
  -107.8826-107.8816-107.8816-107.8791-107.8765-107.8754-107.8754-107.8742
  -107.8741-107.8736-107.8727-107.8725-107.6564-107.6538-107.6528-107.6522
  -107.6511-107.6510-107.6488-107.6468-107.6467-107.6405-107.6376-107.6365
  -107.6365-107.6350-107.6350-107.6346-107.6335-107.6335 -65.3532 -65.3440
   -65.3435 -65.3423 -65.3412 -65.3412 -65.3407 -65.3406 -65.3374 -65.3374
   -65.3367 -65.3366 -65.3348 -65.3347 -65.3302 -65.3287 -65.3287 -65.3266
   -65.3261 -65.3250 -65.3249 -65.3248 -65.3247 -65.3245 -65.3223 -65.3223
   -65.3220 -65.3219 -65.3177 -65.3177 -65.3146 -65.3145 -65.3144 -65.3132
   -65.3132 -65.3126 -65.3119 -65.3119 -65.3097 -65.3097 -65.3073 -65.3073
   -65.3040 -65.3037 -65.3036 -65.3032 -65.3024 -65.3023 -65.3017 -65.3005
   -65.3003 -65.2992 -65.2991 -65.2977 -65.2976 -65.2975 -65.2967 -65.2960
   -65.2959 -65.2939 -65.2937 -65.2937 -65.2935 -65.2934 -65.2933 -65.2908
   -65.2907 -65.2886 -65.2885 -65.2879 -65.2878 -65.2863 -65.2862 -65.2859
   -65.2853 -65.2852 -65.2851 -65.2848 -65.2847 -65.2846 -65.2846 -65.2829
   -65.2828 -65.2810 -65.2809 -65.2806 -65.2799 -65.2793 -65.2789 -65.2788
   -65.2787 -65.2781 -65.2775 -65.2752 -65.2752 -65.2736 -65.2719 -65.2719
   -65.2719 -65.2710 -65.2707 -65.2683 -65.2683 -65.2675 -65.2650 -65.2644
   -65.2614 -65.2582 -65.1203 -65.1149 -65.1149 -65.1133 -65.1131 -65.1067
   -65.1016 -65.1015 -65.1011 -65.1010 -65.0999 -65.0999 -65.0958 -65.0958
   -65.0927 -65.0880 -65.0879 -65.0823 -65.0822 -65.0793 -65.0779 -65.0774
   -65.0761 -65.0732 -65.0731 -65.0692 -65.0652 -65.0639 -65.0638 -65.0628
   -65.0621 -65.0598 -65.0597 -65.0557 -65.0519 -65.0487 -65.0314 -65.0289
   -65.0280 -65.0275 -65.0264 -65.0264 -65.0235 -65.0216 -65.0215 -65.0127
   -65.0099 -65.0089 -65.0089 -65.0075 -65.0075 -65.0071 -65.0061 -65.0061
   -12.4741  -9.7384  -9.7358  -6.1527  -6.1444  -4.2014  -3.9513  -3.3344
    -2.6115  -2.3904  -2.3482  -2.2358  -1.7993  -1.6381  -1.6375  -1.6361
    -1.5956  -1.2727  -1.1527  -1.1524  -0.9971  -0.5811  -0.5811  -0.4920
    -0.4887  -0.4478  -0.3699  -0.3066  -0.2946  -0.2930  -0.1594  -0.1263
    -0.1218  -0.0241  -0.0194  -0.0193   0.1573   0.1583   0.1870   0.2525
     0.2527   0.3051   0.3451   0.4368   0.4413   0.4710   0.4710   0.4979
     0.5070   0.5070   0.5312   0.5313   0.5783   0.5789   0.5806   0.5809
     0.5935   0.5935   0.6333   0.6333   0.6704   0.6704   0.6986   0.6986
     0.7077   0.7494   0.7496   0.7641   0.7641   0.7868   0.7869   0.7997
     0.7997   0.8341   0.8341   0.8741   0.9429   0.9429   0.9499   0.9732
     0.9732   0.9878   0.9879   1.0242   1.0242   1.0581   1.0610   1.0610
     1.1229   1.1229   1.1497   1.1502   1.1707   1.1707   1.2157   1.2158
     1.2328   1.2526   1.2598   1.2599   1.2881   1.3276   1.3277   1.3477
     1.3478   1.3541   1.3919   1.3926   1.4024   1.4277   1.4277   1.4345
     1.4676   1.4677   1.4968   1.5336   1.5452   1.5558   1.5559   1.5686
     1.5690   1.5691   1.6075   1.6082   1.6128   1.6254   1.6255   1.6409
     1.6465   1.6465   1.6628   1.6659   1.6768   1.6836   1.6956   1.7045
     1.7046   1.7148   1.7197   1.7205   1.7213   1.7390   1.7393   1.7425
     1.7425   1.7466   1.7668   1.7691   1.7802   1.7922   1.7928   1.8011
     1.8026   1.8167   1.8170   1.8533   1.8533   1.8617   1.8618   1.8634
     1.8775   1.8864   1.8864   1.8871   1.8981   1.8998   1.9034   1.9179
     1.9569   1.9613   1.9663   1.9719   1.9725   1.9730   1.9835   1.9968
     2.0020   2.0027   2.0042   2.0258   2.0259   2.0394   2.0752   2.0771
     2.1089   2.1095   2.1178   2.1184   2.1238   2.1238   2.1868   2.2023
     2.2281   2.2293   2.2373   2.2373   2.2498   2.2499   2.2668   2.2781
     2.2855   2.2900   2.2914   2.2980   2.3234   2.3241   2.3507   2.3530
     2.3617   2.3682   2.3688   2.3773   2.3879   2.4030   2.4084   2.4099
     2.4164   2.4254   2.4456   2.4611   2.4629   2.4677   2.4680   2.4848
     2.4892   2.4895   2.5055   2.5093   2.5094   2.5105   2.5183   2.5221
     2.5470   2.5572   2.5939   2.5972   2.6036   2.6315   2.6321   2.6399
     2.6434   2.6436   2.6445   2.6473   2.6681   2.6683   2.6715   2.6836
     2.6852   2.6885   2.6916   2.6920   2.7176   2.7367   2.7367   2.7415
     2.7509   2.7509   2.7727   2.7730   2.7791   2.7799   2.8229   2.8239
     2.8239   2.8351   2.8351   2.8367   2.8481   2.8488   2.8575   2.8590
     2.8590   2.8605   2.8675   2.8676   2.8684   2.8747   2.8830   2.8830
     2.9004   2.9134   2.9135   2.9142   2.9154   2.9217   2.9231   2.9232
     2.9452   2.9546   2.9589   2.9651   2.9652   2.9701   2.9828   2.9830
     3.0598   3.0722   3.1091   3.2085   3.2308   3.2308   3.3027   3.3915
     3.3915   3.6452   3.6983   3.6992   3.7019   3.7070   4.0110   4.1907
     4.3862   4.6740   4.6742   4.8748   4.9713   4.9775   5.0231   5.7572
     5.7572   5.9711   6.1341   6.1383   6.1568   6.1570   6.4116   6.6654
     6.6937   6.8399   6.8422   7.2737   7.4488   7.4594   7.4916   7.6572
     7.6919   7.6995   7.8884   7.9337   8.1516   8.1547   8.2520   8.2966
     8.3508   8.6257   8.6265   8.7537   8.8034   8.9002   9.1771   9.1779
     9.2874   9.3444   9.5497   9.5734   9.7527   9.7829   9.9059   9.9269
     9.9338   9.9647   9.9895  10.0373  10.2588  10.3273  10.3276  10.4530
    10.4901  10.4923  10.5799  10.5881  10.6670  10.7105  10.7142  10.7856
    10.8431  10.8772  10.8888  11.1015  11.1089  11.1987  11.3835  11.4152
    11.4206  11.4550  11.4638  11.5607  11.6562  11.7404  11.8924  11.9851
    12.0416  12.1232  12.1726  12.2606  12.2768  12.3665  12.4788  12.5058
    12.5107  12.5533  12.5657  12.6503  12.7806  12.7823  12.8280  12.8449
    12.9459  12.9549  13.0710  13.0909  13.1364  13.1644  13.1710  13.2598
    13.3756  13.4547

          k = 0.2500 0.1443 0.0000 ( 61417 PWs)   bands (ev):

  -107.8997-107.8960-107.8947-107.8945-107.8940-107.8926-107.8924-107.8919
  -107.8916-107.8907-107.8906-107.8901-107.8901-107.8897-107.8895-107.8889
  -107.8886-107.8884-107.8868-107.8856-107.8846-107.8845-107.8832-107.8831
  -107.8826-107.8816-107.8816-107.8791-107.8765-107.8754-107.8754-107.8742
  -107.8741-107.8736-107.8727-107.8725-107.6564-107.6538-107.6528-107.6522
  -107.6511-107.6510-107.6488-107.6468-107.6467-107.6405-107.6376-107.6365
  -107.6365-107.6350-107.6350-107.6346-107.6335-107.6335 -65.3532 -65.3440
   -65.3435 -65.3423 -65.3412 -65.3412 -65.3407 -65.3406 -65.3374 -65.3374
   -65.3367 -65.3366 -65.3348 -65.3347 -65.3302 -65.3287 -65.3287 -65.3266
   -65.3261 -65.3250 -65.3249 -65.3248 -65.3247 -65.3245 -65.3223 -65.3223
   -65.3220 -65.3219 -65.3177 -65.3177 -65.3146 -65.3145 -65.3144 -65.3132
   -65.3132 -65.3126 -65.3119 -65.3119 -65.3097 -65.3097 -65.3073 -65.3073
   -65.3040 -65.3037 -65.3036 -65.3032 -65.3024 -65.3023 -65.3017 -65.3005
   -65.3003 -65.2992 -65.2991 -65.2977 -65.2976 -65.2975 -65.2967 -65.2960
   -65.2959 -65.2939 -65.2937 -65.2937 -65.2935 -65.2934 -65.2933 -65.2908
   -65.2907 -65.2886 -65.2885 -65.2879 -65.2878 -65.2863 -65.2862 -65.2859
   -65.2853 -65.2852 -65.2851 -65.2848 -65.2847 -65.2846 -65.2846 -65.2829
   -65.2828 -65.2810 -65.2809 -65.2806 -65.2799 -65.2793 -65.2789 -65.2788
   -65.2787 -65.2781 -65.2775 -65.2752 -65.2752 -65.2736 -65.2719 -65.2719
   -65.2719 -65.2710 -65.2707 -65.2683 -65.2683 -65.2675 -65.2650 -65.2644
   -65.2614 -65.2582 -65.1203 -65.1149 -65.1149 -65.1133 -65.1131 -65.1067
   -65.1016 -65.1015 -65.1011 -65.1010 -65.0999 -65.0999 -65.0958 -65.0958
   -65.0927 -65.0880 -65.0879 -65.0823 -65.0822 -65.0793 -65.0779 -65.0774
   -65.0761 -65.0732 -65.0731 -65.0692 -65.0652 -65.0639 -65.0638 -65.0628
   -65.0621 -65.0598 -65.0597 -65.0557 -65.0519 -65.0487 -65.0314 -65.0289
   -65.0280 -65.0275 -65.0264 -65.0264 -65.0235 -65.0216 -65.0215 -65.0127
   -65.0099 -65.0089 -65.0089 -65.0075 -65.0075 -65.0071 -65.0061 -65.0061
   -12.4741  -9.7385  -9.7358  -6.1527  -6.1445  -4.2014  -3.9513  -3.3344
    -2.6115  -2.3904  -2.3482  -2.2358  -1.7993  -1.6382  -1.6375  -1.6362
    -1.5955  -1.2727  -1.1527  -1.1524  -0.9971  -0.5811  -0.5811  -0.4920
    -0.4887  -0.4478  -0.3699  -0.3066  -0.2946  -0.2930  -0.1594  -0.1263
    -0.1218  -0.0241  -0.0194  -0.0193   0.1573   0.1583   0.1870   0.2525
     0.2527   0.3049   0.3452   0.4368   0.4413   0.4710   0.4710   0.4979
     0.5070   0.5070   0.5312   0.5313   0.5783   0.5789   0.5806   0.5809
     0.5935   0.5935   0.6333   0.6333   0.6704   0.6704   0.6986   0.6986
     0.7077   0.7494   0.7496   0.7641   0.7641   0.7868   0.7869   0.7997
     0.7997   0.8341   0.8341   0.8741   0.9429   0.9429   0.9499   0.9732
     0.9732   0.9878   0.9879   1.0242   1.0242   1.0581   1.0610   1.0610
     1.1229   1.1229   1.1497   1.1502   1.1707   1.1707   1.2157   1.2158
     1.2328   1.2526   1.2598   1.2599   1.2881   1.3276   1.3277   1.3477
     1.3478   1.3541   1.3919   1.3926   1.4024   1.4277   1.4277   1.4345
     1.4676   1.4677   1.4968   1.5336   1.5452   1.5558   1.5559   1.5686
     1.5690   1.5691   1.6075   1.6082   1.6128   1.6254   1.6255   1.6409
     1.6465   1.6465   1.6628   1.6659   1.6768   1.6836   1.6956   1.7045
     1.7046   1.7148   1.7197   1.7205   1.7213   1.7390   1.7393   1.7425
     1.7425   1.7466   1.7668   1.7691   1.7802   1.7922   1.7928   1.8011
     1.8026   1.8167   1.8170   1.8533   1.8533   1.8617   1.8618   1.8634
     1.8775   1.8864   1.8864   1.8871   1.8981   1.8998   1.9034   1.9179
     1.9569   1.9613   1.9663   1.9719   1.9725   1.9730   1.9835   1.9968
     2.0020   2.0027   2.0042   2.0258   2.0259   2.0394   2.0752   2.0771
     2.1089   2.1095   2.1178   2.1184   2.1238   2.1238   2.1868   2.2023
     2.2281   2.2293   2.2373   2.2373   2.2498   2.2499   2.2668   2.2781
     2.2855   2.2900   2.2914   2.2980   2.3234   2.3241   2.3507   2.3530
     2.3617   2.3682   2.3688   2.3773   2.3879   2.4030   2.4084   2.4099
     2.4164   2.4254   2.4456   2.4611   2.4629   2.4677   2.4680   2.4848
     2.4892   2.4895   2.5055   2.5093   2.5094   2.5105   2.5183   2.5221
     2.5470   2.5572   2.5939   2.5972   2.6036   2.6315   2.6321   2.6399
     2.6434   2.6436   2.6445   2.6473   2.6681   2.6683   2.6715   2.6836
     2.6852   2.6885   2.6916   2.6920   2.7176   2.7367   2.7367   2.7415
     2.7509   2.7509   2.7727   2.7730   2.7791   2.7799   2.8229   2.8239
     2.8239   2.8351   2.8351   2.8367   2.8481   2.8488   2.8575   2.8590
     2.8590   2.8605   2.8675   2.8676   2.8684   2.8747   2.8830   2.8830
     2.9004   2.9134   2.9135   2.9142   2.9154   2.9217   2.9231   2.9232
     2.9452   2.9546   2.9589   2.9651   2.9652   2.9701   2.9828   2.9830
     3.0598   3.0722   3.1091   3.2085   3.2308   3.2308   3.3027   3.3915
     3.3915   3.6452   3.6983   3.6992   3.7019   3.7070   4.0110   4.1907
     4.3862   4.6740   4.6742   4.8748   4.9713   4.9775   5.0231   5.7572
     5.7572   5.9711   6.1341   6.1383   6.1568   6.1570   6.4116   6.6654
     6.6937   6.8399   6.8422   7.2737   7.4488   7.4594   7.4916   7.6572
     7.6919   7.6995   7.8884   7.9337   8.1516   8.1547   8.2520   8.2966
     8.3508   8.6257   8.6265   8.7537   8.8034   8.9002   9.1771   9.1779
     9.2874   9.3444   9.5496   9.5734   9.7527   9.7829   9.9059   9.9269
     9.9338   9.9647   9.9895  10.0373  10.2588  10.3273  10.3276  10.4530
    10.4901  10.4923  10.5799  10.5881  10.6670  10.7105  10.7142  10.7856
    10.8431  10.8772  10.8888  11.1014  11.1089  11.1987  11.3835  11.4152
    11.4206  11.4550  11.4638  11.5607  11.6562  11.7404  11.8924  11.9852
    12.0416  12.1232  12.1726  12.2606  12.2768  12.3665  12.4788  12.5058
    12.5107  12.5533  12.5657  12.6503  12.7806  12.7823  12.8280  12.8449
    12.9459  12.9549  13.0710  13.0909  13.1364  13.1644  13.1710  13.2598
    13.3756  13.4548

          k = 0.5000-0.2887 0.0000 ( 61408 PWs)   bands (ev):

  -107.8984-107.8978-107.8949-107.8948-107.8935-107.8927-107.8917-107.8913
  -107.8911-107.8910-107.8909-107.8907-107.8906-107.8896-107.8890-107.8889
  -107.8886-107.8874-107.8871-107.8867-107.8848-107.8847-107.8825-107.8825
  -107.8824-107.8820-107.8818-107.8782-107.8778-107.8756-107.8756-107.8737
  -107.8733-107.8733-107.8733-107.8727-107.6557-107.6548-107.6529-107.6522
  -107.6509-107.6508-107.6487-107.6469-107.6467-107.6393-107.6393-107.6367
  -107.6367-107.6342-107.6342-107.6342-107.6341-107.6341 -65.3494 -65.3490
   -65.3467 -65.3452 -65.3413 -65.3413 -65.3401 -65.3400 -65.3396 -65.3395
   -65.3384 -65.3383 -65.3382 -65.3379 -65.3342 -65.3277 -65.3272 -65.3272
   -65.3267 -65.3267 -65.3265 -65.3264 -65.3256 -65.3254 -65.3230 -65.3230
   -65.3227 -65.3226 -65.3155 -65.3154 -65.3142 -65.3141 -65.3139 -65.3137
   -65.3123 -65.3086 -65.3086 -65.3055 -65.3049 -65.3048 -65.3048 -65.3046
   -65.3044 -65.3039 -65.3019 -65.3018 -65.3013 -65.3012 -65.3010 -65.3009
   -65.2978 -65.2978 -65.2977 -65.2969 -65.2969 -65.2967 -65.2965 -65.2951
   -65.2919 -65.2917 -65.2913 -65.2913 -65.2911 -65.2906 -65.2904 -65.2904
   -65.2903 -65.2903 -65.2902 -65.2898 -65.2872 -65.2872 -65.2869 -65.2868
   -65.2863 -65.2859 -65.2842 -65.2841 -65.2832 -65.2831 -65.2830 -65.2829
   -65.2818 -65.2816 -65.2814 -65.2808 -65.2799 -65.2798 -65.2798 -65.2792
   -65.2791 -65.2789 -65.2789 -65.2758 -65.2757 -65.2757 -65.2756 -65.2742
   -65.2737 -65.2720 -65.2718 -65.2717 -65.2697 -65.2697 -65.2680 -65.2678
   -65.2610 -65.2607 -65.1245 -65.1172 -65.1172 -65.1159 -65.1157 -65.1109
   -65.1030 -65.1030 -65.1030 -65.1029 -65.0979 -65.0978 -65.0863 -65.0861
   -65.0848 -65.0847 -65.0843 -65.0843 -65.0779 -65.0774 -65.0768 -65.0741
   -65.0734 -65.0719 -65.0719 -65.0719 -65.0718 -65.0659 -65.0644 -65.0639
   -65.0635 -65.0635 -65.0608 -65.0607 -65.0517 -65.0517 -65.0308 -65.0298
   -65.0281 -65.0275 -65.0263 -65.0262 -65.0235 -65.0216 -65.0215 -65.0115
   -65.0115 -65.0091 -65.0091 -65.0067 -65.0067 -65.0067 -65.0066 -65.0066
   -12.4733  -9.7420  -9.7366  -6.1561  -6.1397  -4.1745  -3.3257  -3.3255
    -2.7262  -2.7261  -2.5836  -2.2395  -1.8177  -1.8164  -1.7930  -1.7930
    -1.6837  -1.6028  -1.2824  -1.2820  -0.7615  -0.7534  -0.5616  -0.5594
    -0.3198  -0.1805   0.0032   0.0060   0.0164   0.0235   0.0236   0.0237
     0.0237   0.1114   0.1850   0.1852   0.1929   0.1953   0.2028   0.2215
     0.2216   0.2216   0.2216   0.2655   0.2777   0.2778   0.2778   0.2780
     0.3452   0.4044   0.4426   0.4426   0.4428   0.4429   0.4832   0.5247
     0.6196   0.6196   0.6197   0.6197   0.6349   0.6571   0.6577   0.6742
     0.6742   0.6743   0.6744   0.7937   0.7937   0.7938   0.7939   0.8165
     0.8167   0.9058   0.9183   0.9183   0.9183   0.9184   0.9538   0.9538
     0.9985   0.9985   1.0702   1.0703   1.0704   1.0705   1.1306   1.1306
     1.1597   1.1599   1.1812   1.1812   1.1815   1.1816   1.1982   1.1982
     1.2351   1.2362   1.2872   1.2990   1.2993   1.3273   1.3276   1.3484
     1.3490   1.3566   1.3567   1.3569   1.3570   1.4136   1.4141   1.4187
     1.4187   1.4190   1.4190   1.4699   1.4713   1.4933   1.4933   1.4934
     1.4935   1.5032   1.5048   1.5048   1.5647   1.5669   1.5885   1.5895
     1.5902   1.6061   1.6082   1.6405   1.6413   1.6413   1.6415   1.6415
     1.6555   1.6570   1.7045   1.7046   1.7150   1.7152   1.7281   1.7281
     1.7626   1.7628   1.7628   1.7629   1.7856   1.7860   1.7863   1.7865
     1.7873   1.8164   1.8166   1.8168   1.8171   1.8481   1.8484   1.8682
     1.8774   1.8776   1.9398   1.9404   1.9462   1.9463   1.9507   1.9508
     1.9512   1.9513   1.9599   1.9606   1.9665   1.9666   1.9767   1.9936
     1.9944   2.0021   2.0024   2.0026   2.0029   2.0706   2.0737   2.0822
     2.0822   2.1523   2.1638   2.1648   2.1650   2.1678   2.1717   2.1736
     2.1737   2.1745   2.1788   2.1791   2.2034   2.2053   2.2282   2.2440
     2.2448   2.2449   2.2472   2.2643   2.2643   2.2644   2.2644   2.2679
     2.2685   2.2902   2.2905   2.2971   2.2974   2.3262   2.3732   2.3741
     2.4204   2.4204   2.4277   2.4482   2.4482   2.4489   2.4500   2.4805
     2.4813   2.4845   2.4983   2.5204   2.5212   2.5240   2.5241   2.5347
     2.5478   2.5545   2.5607   2.5608   2.5609   2.5611   2.5739   2.5948
     2.5948   2.5959   2.5973   2.6505   2.6507   2.6508   2.6511   2.6612
     2.6619   2.6876   2.6880   2.7177   2.7178   2.7206   2.7212   2.7483
     2.7483   2.7737   2.7761   2.7789   2.7974   2.8372   2.8386   2.8487
     2.8493   2.8587   2.8591   2.8727   2.8865   2.8866   2.8910   2.8912
     2.8923   2.8928   2.9080   2.9129   2.9129   2.9132   2.9133   2.9302
     2.9317   2.9319   2.9368   2.9404   2.9568   2.9598   2.9798   2.9799
     2.9803   2.9809   2.9877   2.9933   3.0165   3.0300   3.0301   3.0306
     3.0306   3.1395   3.1513   3.6707   3.6794   3.6817   3.6853   4.1982
     4.2416   4.2416   4.2418   4.2418   4.5126   4.5128   4.5131   4.5132
     4.8636   4.8661   4.8761   4.9809   4.9995   5.0702   5.0714   5.0721
     5.0728   5.3574   5.6967   5.9493   5.9733   5.9754   6.0498   6.0551
     6.0562   6.0584   6.1139   6.5218   6.5539   7.2926   7.3563   7.3659
     7.3664   7.4323   7.6036   7.9623   7.9825   8.0821   8.2235   8.3634
     8.4882   8.4894   8.4906   8.5016   8.8604   8.8829   8.8995   9.1378
     9.1392   9.1393   9.1449   9.2734   9.4590   9.5665   9.6938   9.7651
     9.7672   9.7951   9.8042   9.8445   9.8677  10.2397  10.3189  10.3251
    10.3789  10.4186  10.4395  10.4429  10.4563  10.8094  10.8799  11.0229
    11.1125  11.1948  11.2323  11.2376  11.2919  11.3368  11.3669  11.3847
    11.4606  11.5274  11.6597  12.0213  12.0924  12.1379  12.1506  12.1982
    12.2228  12.2852  12.4340  12.4883  12.7146  12.8155  12.8224  12.9260
    12.9362  12.9755  13.0046  13.0183  13.0402  13.1663  13.1733  13.1837
    13.1880  13.2444  13.2748  13.3511  13.4037  13.5782  13.6115  13.6142
    13.6646  13.7586

          k =-0.5000-0.2887 0.0000 ( 61408 PWs)   bands (ev):

  -107.8984-107.8978-107.8949-107.8948-107.8935-107.8927-107.8917-107.8913
  -107.8911-107.8910-107.8909-107.8907-107.8906-107.8896-107.8890-107.8889
  -107.8886-107.8874-107.8871-107.8867-107.8848-107.8847-107.8825-107.8825
  -107.8824-107.8819-107.8818-107.8782-107.8778-107.8756-107.8756-107.8737
  -107.8733-107.8733-107.8733-107.8727-107.6557-107.6548-107.6529-107.6522
  -107.6509-107.6508-107.6487-107.6469-107.6467-107.6393-107.6393-107.6367
  -107.6367-107.6342-107.6342-107.6342-107.6341-107.6341 -65.3494 -65.3490
   -65.3467 -65.3452 -65.3413 -65.3413 -65.3401 -65.3400 -65.3396 -65.3395
   -65.3384 -65.3383 -65.3382 -65.3379 -65.3342 -65.3277 -65.3272 -65.3272
   -65.3267 -65.3267 -65.3265 -65.3264 -65.3256 -65.3254 -65.3230 -65.3230
   -65.3227 -65.3226 -65.3155 -65.3154 -65.3142 -65.3141 -65.3139 -65.3137
   -65.3123 -65.3086 -65.3086 -65.3055 -65.3049 -65.3048 -65.3048 -65.3046
   -65.3044 -65.3039 -65.3019 -65.3018 -65.3013 -65.3012 -65.3010 -65.3009
   -65.2978 -65.2978 -65.2977 -65.2969 -65.2969 -65.2967 -65.2965 -65.2951
   -65.2919 -65.2917 -65.2913 -65.2913 -65.2911 -65.2906 -65.2904 -65.2904
   -65.2903 -65.2903 -65.2902 -65.2898 -65.2872 -65.2872 -65.2869 -65.2868
   -65.2863 -65.2859 -65.2842 -65.2841 -65.2832 -65.2831 -65.2830 -65.2829
   -65.2818 -65.2816 -65.2814 -65.2808 -65.2799 -65.2798 -65.2798 -65.2792
   -65.2791 -65.2789 -65.2789 -65.2758 -65.2757 -65.2757 -65.2756 -65.2742
   -65.2737 -65.2720 -65.2718 -65.2717 -65.2697 -65.2697 -65.2680 -65.2678
   -65.2610 -65.2607 -65.1245 -65.1172 -65.1172 -65.1159 -65.1157 -65.1109
   -65.1030 -65.1030 -65.1030 -65.1029 -65.0979 -65.0978 -65.0863 -65.0861
   -65.0848 -65.0847 -65.0843 -65.0843 -65.0779 -65.0774 -65.0768 -65.0741
   -65.0734 -65.0719 -65.0719 -65.0719 -65.0718 -65.0659 -65.0644 -65.0639
   -65.0635 -65.0635 -65.0608 -65.0607 -65.0517 -65.0517 -65.0308 -65.0298
   -65.0281 -65.0275 -65.0263 -65.0262 -65.0235 -65.0216 -65.0215 -65.0115
   -65.0115 -65.0091 -65.0091 -65.0067 -65.0067 -65.0067 -65.0066 -65.0066
   -12.4733  -9.7420  -9.7365  -6.1560  -6.1398  -4.1745  -3.3257  -3.3255
    -2.7262  -2.7261  -2.5836  -2.2395  -1.8177  -1.8164  -1.7930  -1.7930
    -1.6838  -1.6027  -1.2824  -1.2820  -0.7615  -0.7534  -0.5616  -0.5594
    -0.3198  -0.1805   0.0032   0.0060   0.0164   0.0235   0.0236   0.0237
     0.0237   0.1114   0.1850   0.1852   0.1929   0.1953   0.2028   0.2215
     0.2216   0.2216   0.2216   0.2654   0.2777   0.2778   0.2778   0.2780
     0.3453   0.4044   0.4426   0.4426   0.4428   0.4429   0.4832   0.5247
     0.6196   0.6196   0.6197   0.6197   0.6349   0.6571   0.6577   0.6742
     0.6742   0.6743   0.6743   0.7937   0.7937   0.7938   0.7939   0.8165
     0.8167   0.9058   0.9183   0.9183   0.9183   0.9184   0.9538   0.9538
     0.9985   0.9985   1.0702   1.0703   1.0704   1.0705   1.1306   1.1306
     1.1597   1.1599   1.1812   1.1812   1.1815   1.1816   1.1982   1.1982
     1.2351   1.2362   1.2872   1.2990   1.2993   1.3273   1.3276   1.3484
     1.3490   1.3566   1.3567   1.3569   1.3570   1.4136   1.4141   1.4187
     1.4187   1.4190   1.4190   1.4699   1.4713   1.4933   1.4933   1.4934
     1.4935   1.5032   1.5048   1.5048   1.5647   1.5669   1.5885   1.5895
     1.5902   1.6061   1.6082   1.6405   1.6413   1.6413   1.6415   1.6415
     1.6555   1.6570   1.7045   1.7046   1.7150   1.7152   1.7281   1.7281
     1.7626   1.7628   1.7628   1.7629   1.7856   1.7860   1.7863   1.7865
     1.7873   1.8164   1.8166   1.8168   1.8171   1.8481   1.8484   1.8682
     1.8774   1.8776   1.9398   1.9404   1.9462   1.9463   1.9507   1.9508
     1.9512   1.9512   1.9599   1.9606   1.9665   1.9666   1.9767   1.9936
     1.9944   2.0021   2.0024   2.0026   2.0029   2.0706   2.0737   2.0822
     2.0822   2.1523   2.1638   2.1648   2.1650   2.1678   2.1717   2.1736
     2.1737   2.1745   2.1788   2.1791   2.2034   2.2053   2.2282   2.2440
     2.2448   2.2449   2.2472   2.2643   2.2643   2.2644   2.2644   2.2679
     2.2685   2.2902   2.2905   2.2971   2.2974   2.3262   2.3732   2.3741
     2.4204   2.4204   2.4277   2.4482   2.4482   2.4489   2.4500   2.4805
     2.4813   2.4845   2.4983   2.5204   2.5212   2.5240   2.5241   2.5347
     2.5478   2.5545   2.5607   2.5608   2.5609   2.5611   2.5739   2.5948
     2.5948   2.5959   2.5973   2.6505   2.6507   2.6508   2.6511   2.6612
     2.6619   2.6876   2.6880   2.7177   2.7178   2.7206   2.7212   2.7483
     2.7483   2.7737   2.7761   2.7789   2.7974   2.8372   2.8386   2.8487
     2.8493   2.8587   2.8591   2.8727   2.8865   2.8866   2.8910   2.8912
     2.8923   2.8928   2.9080   2.9129   2.9129   2.9132   2.9133   2.9302
     2.9317   2.9319   2.9367   2.9404   2.9568   2.9598   2.9798   2.9799
     2.9803   2.9809   2.9877   2.9933   3.0165   3.0300   3.0301   3.0306
     3.0306   3.1395   3.1513   3.6707   3.6794   3.6817   3.6853   4.1982
     4.2416   4.2416   4.2418   4.2418   4.5126   4.5128   4.5131   4.5132
     4.8636   4.8661   4.8761   4.9809   4.9995   5.0702   5.0714   5.0721
     5.0728   5.3574   5.6967   5.9493   5.9733   5.9754   6.0498   6.0551
     6.0562   6.0584   6.1139   6.5218   6.5539   7.2926   7.3563   7.3659
     7.3664   7.4323   7.6036   7.9622   7.9825   8.0821   8.2235   8.3634
     8.4882   8.4894   8.4906   8.5016   8.8604   8.8829   8.8995   9.1378
     9.1392   9.1393   9.1449   9.2734   9.4590   9.5665   9.6938   9.7651
     9.7672   9.7951   9.8042   9.8444   9.8677  10.2397  10.3189  10.3251
    10.3789  10.4186  10.4395  10.4429  10.4563  10.8094  10.8800  11.0229
    11.1125  11.1948  11.2323  11.2376  11.2919  11.3368  11.3669  11.3848
    11.4606  11.5274  11.6597  12.0213  12.0924  12.1380  12.1506  12.1982
    12.2228  12.2852  12.4340  12.4882  12.7145  12.8155  12.8225  12.9259
    12.9362  12.9755  13.0046  13.0183  13.0402  13.1663  13.1733  13.1837
    13.1880  13.2444  13.2748  13.3511  13.4037  13.5782  13.6115  13.6142
    13.6646  13.7586

          k =-0.2500-0.7217 0.0000 ( 61343 PWs)   bands (ev):

  -107.8986-107.8969-107.8964-107.8938-107.8928-107.8927-107.8924-107.8918
  -107.8914-107.8910-107.8909-107.8905-107.8901-107.8895-107.8892-107.8888
  -107.8886-107.8876-107.8868-107.8863-107.8860-107.8835-107.8832-107.8825
  -107.8824-107.8819-107.8817-107.8784-107.8771-107.8768-107.8745-107.8742
  -107.8735-107.8733-107.8731-107.8727-107.6558-107.6546-107.6533-107.6518
  -107.6510-107.6508-107.6487-107.6469-107.6467-107.6397-107.6382-107.6382
  -107.6353-107.6352-107.6342-107.6342-107.6341-107.6338 -65.3505 -65.3459
   -65.3456 -65.3447 -65.3444 -65.3434 -65.3432 -65.3418 -65.3401 -65.3385
   -65.3383 -65.3372 -65.3344 -65.3325 -65.3321 -65.3321 -65.3319 -65.3293
   -65.3262 -65.3258 -65.3256 -65.3254 -65.3252 -65.3237 -65.3236 -65.3226
   -65.3218 -65.3217 -65.3189 -65.3186 -65.3135 -65.3133 -65.3129 -65.3122
   -65.3097 -65.3095 -65.3087 -65.3085 -65.3083 -65.3053 -65.3048 -65.3046
   -65.3035 -65.3029 -65.3026 -65.3025 -65.3015 -65.2986 -65.2984 -65.2983
   -65.2981 -65.2981 -65.2979 -65.2966 -65.2964 -65.2962 -65.2959 -65.2944
   -65.2942 -65.2929 -65.2927 -65.2925 -65.2923 -65.2919 -65.2902 -65.2890
   -65.2888 -65.2888 -65.2886 -65.2881 -65.2878 -65.2872 -65.2871 -65.2869
   -65.2867 -65.2855 -65.2853 -65.2845 -65.2840 -65.2839 -65.2835 -65.2820
   -65.2818 -65.2810 -65.2809 -65.2809 -65.2808 -65.2807 -65.2806 -65.2804
   -65.2786 -65.2784 -65.2779 -65.2760 -65.2759 -65.2751 -65.2749 -65.2749
   -65.2740 -65.2739 -65.2717 -65.2707 -65.2707 -65.2698 -65.2661 -65.2642
   -65.2642 -65.2604 -65.1226 -65.1218 -65.1193 -65.1127 -65.1093 -65.1086
   -65.1086 -65.1081 -65.1058 -65.0992 -65.0952 -65.0952 -65.0895 -65.0877
   -65.0864 -65.0860 -65.0814 -65.0803 -65.0798 -65.0790 -65.0757 -65.0737
   -65.0731 -65.0728 -65.0728 -65.0686 -65.0683 -65.0671 -65.0670 -65.0662
   -65.0662 -65.0643 -65.0596 -65.0550 -65.0550 -65.0510 -65.0308 -65.0297
   -65.0285 -65.0272 -65.0264 -65.0263 -65.0235 -65.0216 -65.0215 -65.0119
   -65.0105 -65.0104 -65.0077 -65.0077 -65.0067 -65.0067 -65.0066 -65.0063
   -12.4733  -9.7407  -9.7379  -6.1518  -6.1440  -4.1747  -3.5312  -2.9250
    -2.7250  -2.7249  -2.5834  -2.2393  -2.1504  -2.1503  -2.0018  -1.6655
    -1.6245  -1.2918  -1.2907  -0.9185  -0.7143  -0.7142  -0.3722  -0.3634
    -0.3604  -0.3188  -0.2768  -0.1234  -0.1234  -0.1140   0.0519   0.0523
     0.0712   0.0713   0.0875   0.1373   0.1496   0.1497   0.1667   0.2653
     0.2690   0.2724   0.2724   0.2841   0.3252   0.3471   0.3492   0.4106
     0.4108   0.4226   0.4334   0.4607   0.4608   0.4638   0.4825   0.4830
     0.5513   0.5515   0.5758   0.5780   0.6083   0.6083   0.6329   0.6423
     0.6424   0.7115   0.7115   0.7376   0.7603   0.7703   0.7705   0.8460
     0.8470   0.8973   0.9167   0.9168   0.9466   0.9467   1.0035   1.0127
     1.0129   1.0281   1.0281   1.0432   1.0810   1.1086   1.1087   1.1507
     1.1509   1.1784   1.1841   1.1843   1.1855   1.2016   1.2017   1.2617
     1.2620   1.2646   1.2646   1.2673   1.2803   1.2968   1.2978   1.3113
     1.3116   1.3392   1.3399   1.3629   1.3653   1.3657   1.3847   1.4084
     1.4494   1.4576   1.4578   1.4583   1.4589   1.4881   1.5070   1.5112
     1.5117   1.5485   1.5485   1.5498   1.5524   1.5584   1.5814   1.6029
     1.6030   1.6203   1.6204   1.6473   1.6479   1.6568   1.6569   1.6707
     1.6711   1.6847   1.6849   1.7025   1.7027   1.7170   1.7261   1.7499
     1.7648   1.7661   1.7678   1.7860   1.7886   1.7890   1.7956   1.8043
     1.8046   1.8132   1.8133   1.8274   1.8330   1.8334   1.8335   1.8416
     1.8555   1.8605   1.8841   1.9018   1.9027   1.9112   1.9133   1.9138
     1.9201   1.9213   1.9215   1.9242   1.9295   1.9354   1.9369   1.9377
     1.9971   1.9979   2.0587   2.0592   2.0682   2.0718   2.0719   2.0770
     2.0997   2.0999   2.1193   2.1214   2.1236   2.1426   2.1583   2.1592
     2.1894   2.1905   2.2023   2.2320   2.2322   2.2356   2.2360   2.2399
     2.2419   2.2421   2.2485   2.2538   2.2612   2.2615   2.2976   2.3185
     2.3240   2.3269   2.3284   2.3324   2.3428   2.3470   2.3566   2.3696
     2.3793   2.3885   2.3944   2.4230   2.4268   2.4372   2.4445   2.4486
     2.4549   2.4578   2.4884   2.4978   2.5026   2.5031   2.5297   2.5299
     2.5512   2.5579   2.5585   2.5767   2.5774   2.6004   2.6006   2.6013
     2.6051   2.6074   2.6210   2.6213   2.6258   2.6315   2.6339   2.6509
     2.6894   2.6967   2.6969   2.6987   2.7472   2.7475   2.7569   2.7580
     2.7896   2.8026   2.8029   2.8085   2.8087   2.8241   2.8266   2.8531
     2.8535   2.8536   2.8633   2.8634   2.8754   2.8769   2.8780   2.8781
     2.8797   2.8876   2.8877   2.8882   2.8908   2.9055   2.9059   2.9213
     2.9219   2.9255   2.9321   2.9322   2.9436   2.9597   2.9643   2.9702
     2.9705   2.9877   3.0198   3.0201   3.0300   3.0516   3.0519   3.2048
     3.2081   3.3191   3.3192   3.4217   3.4219   3.5219   3.7469   3.7483
     4.1247   4.1333   4.2303   4.2304   4.2432   4.5063   4.6178   4.6214
     4.6386   4.6387   4.7574   5.0850   5.1126   5.1134   5.5558   5.5973
     5.6137   5.6514   5.8488   5.8698   5.8713   6.0021   6.0065   6.0930
     6.1638   6.5374   6.6167   6.6182   6.7932   6.8441   6.9395   6.9937
     6.9943   7.2922   7.4175   7.4473   7.5564   7.7653   7.8162   7.9206
     8.4122   8.4143   8.4602   8.5180   8.7064   9.0521   9.0788   9.1169
     9.1894   9.2704   9.3309   9.4255   9.4331   9.5890   9.6226   9.6497
     9.7666   9.8056  10.0075  10.1128  10.1282  10.3086  10.3639  10.4699
    10.4886  10.5554  10.6279  10.7530  10.7845  11.0150  11.1054  11.1480
    11.2455  11.2961  11.3842  11.4217  11.4270  11.5801  11.6180  11.6519
    11.6686  11.7453  11.7894  11.8329  11.9535  12.0598  12.0735  12.1881
    12.2577  12.3172  12.3366  12.3691  12.4341  12.4439  12.5098  12.5728
    12.6674  12.6948  12.7794  12.9016  12.9295  12.9526  13.1327  13.2168
    13.2498  13.2876  13.3516  13.3705  13.4453  13.4648  13.5305  13.6017
    13.6382  13.6552

          k =-0.5000-0.5774 0.0000 ( 61343 PWs)   bands (ev):

  -107.8986-107.8969-107.8964-107.8939-107.8928-107.8927-107.8924-107.8918
  -107.8914-107.8910-107.8909-107.8905-107.8901-107.8895-107.8892-107.8888
  -107.8886-107.8876-107.8868-107.8863-107.8860-107.8835-107.8832-107.8825
  -107.8824-107.8819-107.8817-107.8784-107.8771-107.8768-107.8745-107.8741
  -107.8736-107.8733-107.8731-107.8727-107.6558-107.6545-107.6533-107.6518
  -107.6510-107.6508-107.6487-107.6469-107.6467-107.6397-107.6382-107.6382
  -107.6353-107.6352-107.6342-107.6342-107.6341-107.6338 -65.3505 -65.3459
   -65.3456 -65.3447 -65.3444 -65.3434 -65.3432 -65.3418 -65.3401 -65.3385
   -65.3383 -65.3372 -65.3344 -65.3325 -65.3321 -65.3321 -65.3319 -65.3293
   -65.3262 -65.3258 -65.3257 -65.3254 -65.3252 -65.3237 -65.3236 -65.3226
   -65.3218 -65.3216 -65.3189 -65.3186 -65.3135 -65.3133 -65.3129 -65.3122
   -65.3097 -65.3095 -65.3087 -65.3085 -65.3083 -65.3053 -65.3048 -65.3046
   -65.3035 -65.3029 -65.3026 -65.3025 -65.3015 -65.2986 -65.2984 -65.2983
   -65.2981 -65.2981 -65.2979 -65.2966 -65.2964 -65.2962 -65.2959 -65.2944
   -65.2942 -65.2929 -65.2927 -65.2925 -65.2923 -65.2919 -65.2902 -65.2890
   -65.2888 -65.2888 -65.2886 -65.2881 -65.2878 -65.2872 -65.2871 -65.2869
   -65.2867 -65.2855 -65.2853 -65.2845 -65.2840 -65.2839 -65.2835 -65.2820
   -65.2818 -65.2810 -65.2809 -65.2809 -65.2808 -65.2807 -65.2806 -65.2804
   -65.2786 -65.2784 -65.2779 -65.2760 -65.2759 -65.2751 -65.2749 -65.2749
   -65.2740 -65.2739 -65.2717 -65.2707 -65.2707 -65.2698 -65.2661 -65.2642
   -65.2642 -65.2604 -65.1226 -65.1218 -65.1193 -65.1127 -65.1093 -65.1086
   -65.1086 -65.1081 -65.1058 -65.0992 -65.0952 -65.0952 -65.0895 -65.0877
   -65.0864 -65.0860 -65.0814 -65.0803 -65.0798 -65.0790 -65.0757 -65.0737
   -65.0731 -65.0728 -65.0728 -65.0686 -65.0683 -65.0671 -65.0670 -65.0662
   -65.0662 -65.0643 -65.0596 -65.0550 -65.0550 -65.0510 -65.0308 -65.0297
   -65.0285 -65.0272 -65.0264 -65.0262 -65.0235 -65.0216 -65.0215 -65.0119
   -65.0105 -65.0104 -65.0077 -65.0077 -65.0067 -65.0067 -65.0066 -65.0063
   -12.4733  -9.7406  -9.7380  -6.1521  -6.1437  -4.1747  -3.5312  -2.9250
    -2.7250  -2.7249  -2.5834  -2.2393  -2.1504  -2.1503  -2.0018  -1.6655
    -1.6245  -1.2917  -1.2907  -0.9185  -0.7143  -0.7142  -0.3722  -0.3634
    -0.3604  -0.3188  -0.2768  -0.1234  -0.1234  -0.1140   0.0519   0.0523
     0.0712   0.0713   0.0875   0.1373   0.1496   0.1497   0.1667   0.2653
     0.2690   0.2724   0.2724   0.2842   0.3251   0.3471   0.3492   0.4106
     0.4108   0.4226   0.4334   0.4607   0.4608   0.4638   0.4825   0.4830
     0.5513   0.5515   0.5758   0.5780   0.6083   0.6083   0.6329   0.6423
     0.6424   0.7115   0.7115   0.7376   0.7603   0.7703   0.7705   0.8460
     0.8470   0.8973   0.9167   0.9168   0.9466   0.9467   1.0035   1.0127
     1.0129   1.0281   1.0281   1.0432   1.0810   1.1086   1.1087   1.1507
     1.1510   1.1784   1.1841   1.1843   1.1855   1.2016   1.2017   1.2617
     1.2620   1.2646   1.2646   1.2673   1.2803   1.2968   1.2978   1.3113
     1.3116   1.3392   1.3399   1.3629   1.3653   1.3657   1.3847   1.4084
     1.4494   1.4576   1.4578   1.4583   1.4589   1.4881   1.5070   1.5113
     1.5117   1.5485   1.5485   1.5498   1.5524   1.5584   1.5814   1.6029
     1.6030   1.6203   1.6204   1.6473   1.6479   1.6568   1.6569   1.6707
     1.6711   1.6847   1.6849   1.7025   1.7027   1.7170   1.7261   1.7499
     1.7648   1.7661   1.7678   1.7860   1.7886   1.7890   1.7956   1.8043
     1.8046   1.8132   1.8133   1.8274   1.8330   1.8334   1.8335   1.8416
     1.8555   1.8605   1.8841   1.9018   1.9027   1.9112   1.9133   1.9138
     1.9201   1.9213   1.9215   1.9242   1.9295   1.9354   1.9369   1.9377
     1.9971   1.9978   2.0587   2.0592   2.0682   2.0718   2.0719   2.0770
     2.0997   2.0999   2.1193   2.1214   2.1236   2.1426   2.1582   2.1592
     2.1894   2.1905   2.2023   2.2320   2.2322   2.2356   2.2360   2.2399
     2.2419   2.2421   2.2485   2.2538   2.2612   2.2615   2.2976   2.3185
     2.3240   2.3269   2.3284   2.3324   2.3428   2.3470   2.3566   2.3696
     2.3793   2.3885   2.3944   2.4230   2.4268   2.4372   2.4445   2.4486
     2.4549   2.4578   2.4884   2.4978   2.5026   2.5031   2.5297   2.5299
     2.5512   2.5579   2.5585   2.5767   2.5774   2.6003   2.6006   2.6013
     2.6051   2.6074   2.6210   2.6213   2.6258   2.6315   2.6339   2.6509
     2.6894   2.6967   2.6969   2.6988   2.7472   2.7475   2.7569   2.7580
     2.7896   2.8026   2.8029   2.8085   2.8087   2.8241   2.8266   2.8531
     2.8535   2.8536   2.8633   2.8634   2.8754   2.8769   2.8780   2.8781
     2.8797   2.8876   2.8877   2.8882   2.8908   2.9055   2.9059   2.9213
     2.9219   2.9255   2.9321   2.9322   2.9436   2.9597   2.9643   2.9702
     2.9705   2.9877   3.0198   3.0201   3.0300   3.0516   3.0519   3.2048
     3.2081   3.3191   3.3192   3.4217   3.4219   3.5219   3.7469   3.7483
     4.1247   4.1333   4.2303   4.2304   4.2432   4.5063   4.6178   4.6215
     4.6386   4.6387   4.7574   5.0850   5.1126   5.1134   5.5558   5.5973
     5.6137   5.6514   5.8488   5.8698   5.8713   6.0021   6.0065   6.0930
     6.1638   6.5374   6.6167   6.6182   6.7931   6.8442   6.9395   6.9937
     6.9943   7.2922   7.4176   7.4471   7.5565   7.7653   7.8161   7.9206
     8.4122   8.4143   8.4602   8.5180   8.7064   9.0522   9.0788   9.1170
     9.1893   9.2704   9.3309   9.4255   9.4332   9.5890   9.6226   9.6497
     9.7666   9.8056  10.0075  10.1129  10.1282  10.3086  10.3639  10.4699
    10.4886  10.5554  10.6279  10.7530  10.7845  11.0150  11.1054  11.1480
    11.2455  11.2961  11.3842  11.4218  11.4270  11.5801  11.6180  11.6519
    11.6686  11.7453  11.7894  11.8330  11.9535  12.0598  12.0736  12.1880
    12.2578  12.3172  12.3366  12.3691  12.4341  12.4440  12.5098  12.5728
    12.6674  12.6948  12.7794  12.9016  12.9295  12.9525  13.1327  13.2168
    13.2498  13.2874  13.3515  13.3705  13.4453  13.4648  13.5306  13.6017
    13.6382  13.6552

     the Fermi energy is     4.5483 ev

!    total energy              =  -21903.76732526 Ry
     Harris-Foulkes estimate   =  -21903.76732527 Ry
     estimated scf accuracy    <          3.0E-09 Ry

     The total energy is the sum of the following terms:

     one-electron contribution = -205801.59712916 Ry
     hartree contribution      =  103101.34711324 Ry
     xc contribution           =   -2143.15873761 Ry
     ewald contribution        =   82939.69397804 Ry
     smearing contrib. (-TS)   =      -0.05254977 Ry

     convergence has been achieved in  34 iterations
 
     init_run     :    158.95s CPU    162.77s WALL (       1 calls)
     electrons    :  21153.96s CPU  21606.43s WALL (       1 calls)

     Called by init_run:
     wfcinit      :    144.80s CPU    147.39s WALL (       1 calls)
     potinit      :      9.85s CPU     10.23s WALL (       1 calls)
     hinit0       :      1.75s CPU      1.78s WALL (       1 calls)

     Called by electrons:
     c_bands      :  19425.50s CPU  19792.21s WALL (      34 calls)
     sum_band     :   1421.43s CPU   1472.39s WALL (      34 calls)
     v_of_rho     :    250.67s CPU    262.85s WALL (      35 calls)
     newd         :     54.03s CPU     77.40s WALL (      35 calls)
     mix_rho      :      7.65s CPU      7.85s WALL (      34 calls)

     Called by c_bands:
     init_us_2    :     41.40s CPU     42.19s WALL (     690 calls)
     cegterg      :  19291.64s CPU  19651.57s WALL (     340 calls)

     Called by sum_band:
     sum_band:bec :      3.49s CPU      3.50s WALL (     340 calls)
     addusdens    :     62.82s CPU     87.36s WALL (      34 calls)

     Called by *egterg:
     h_psi        :   6692.59s CPU   6840.22s WALL (    1822 calls)
     s_psi        :    600.05s CPU    601.12s WALL (    1822 calls)
     g_psi        :     12.56s CPU     12.59s WALL (    1472 calls)
     cdiaghg      :   9139.73s CPU   9227.88s WALL (    1812 calls)

     Called by h_psi:
     h_psi:pot    :   6677.47s CPU   6802.69s WALL (    1822 calls)
     h_psi:calbec :    641.71s CPU    647.93s WALL (    1822 calls)
     vloc_psi     :   5435.99s CPU   5552.83s WALL (    1822 calls)
     add_vuspsi   :    599.74s CPU    601.91s WALL (    1822 calls)

     General routines
     calbec       :    870.91s CPU    878.07s WALL (    2162 calls)
     fft          :    203.85s CPU    206.64s WALL (    2204 calls)
     ffts         :      0.88s CPU      0.91s WALL (      69 calls)
     fftw         :   5866.44s CPU   6000.50s WALL ( 1361078 calls)
     interpolate  :      3.87s CPU      3.93s WALL (      35 calls)
 
     Parallel routines
     fft_scatt_xy :    425.60s CPU    429.20s WALL ( 1363351 calls)
     fft_scatt_yz :   4314.79s CPU   4441.92s WALL ( 1363351 calls)
 
     PWSCF        :     5h55m CPU       55h 6m WALL

       2h
 
   This run was terminated on:   3:12:24  15Nov2019            

=------------------------------------------------------------------------------=
   JOB DONE.
=------------------------------------------------------------------------------=
