
     Program PWSCF v.6.3MaX starts on 21Nov2019 at  0:31:36 

     This program is part of the open-source Quantum ESPRESSO suite
     for quantum simulation of materials; please cite
         "P. Giannozzi et al., J. Phys.:Condens. Matter 21 395502 (2009);
         "P. Giannozzi et al., J. Phys.:Condens. Matter 29 465901 (2017);
          URL http://www.quantum-espresso.org", 
     in publications or presentations arising from this work. More details at
     http://www.quantum-espresso.org/quote

     Parallel version (MPI), running on    16 processors

     MPI processes distributed on     2 nodes
     R & G space division:  proc/nbgrp/npool/nimage =      16
     Waiting for input...
     Reading input from standard input

     Current dimensions of program PWSCF are:
     Max number of different atomic species (ntypx) = 10
     Max number of k-points (npk) =  40000
     Max angular momentum in pseudopotentials (lmaxx) =  3
     Message from routine iosys:
     minimal I/O required, wf_collect reset to FALSE

     IMPORTANT: XC functional enforced from input :
     Exchange-correlation      = VDW-DF ( 1  4  4  0 1 0)
     Any further DFT definition will be discarded
     Please, verify this is what you really want


     Subspace diagonalization in iterative solution of the eigenvalue problem:
     one sub-group per band group will be used
     scalapack distributed-memory algorithm (size of sub-group:  2*  2 procs)

 
     Parallelization info
     --------------------
     sticks:   dense  smooth     PW     G-vecs:    dense   smooth      PW
     Min         565     189     51               159513    30701    4383
     Max         566     190     52               159526    30710    4400
     Sum        9055    3037    823              2552337   491295   70261
 


     bravais-lattice index     =            0
     lattice parameter (alat)  =      14.8058  a.u.
     unit-cell volume          =   10282.4791 (a.u.)^3
     number of atoms/cell      =           66
     number of atomic types    =            3
     number of electrons       =      1056.00
     number of Kohn-Sham states=          634
     kinetic-energy cutoff     =      50.0000  Ry
     charge density cutoff     =     600.0000  Ry
     convergence threshold     =      1.0E-08
     mixing beta               =       0.3000
     number of iterations used =            8  plain     mixing
     Exchange-correlation      = VDW-DF ( 1  4  4  0 1 0)

     celldm(1)=  14.805786  celldm(2)=   0.000000  celldm(3)=   0.000000
     celldm(4)=   0.000000  celldm(5)=   0.000000  celldm(6)=   0.000000

     crystal axes: (cart. coord. in units of alat)
               a(1) = (   1.000000   0.000000   0.000000 )  
               a(2) = (   0.500000   0.866025   0.000000 )  
               a(3) = (   0.000000   0.000000   3.658245 )  

     reciprocal axes: (cart. coord. in units 2 pi/alat)
               b(1) = (  1.000000 -0.577350  0.000000 )  
               b(2) = (  0.000000  1.154701  0.000000 )  
               b(3) = (  0.000000  0.000000  0.273355 )  


     PseudoPot. # 1 for Cu read from file:
     /deac/thonhauserGrp/chakrad/calculations/atomandmolecule-qe6.2.1-i2012-C6modif/all_pbe_UPF_v1.5/cu_pbe_v1.2.uspp.F.UPF
     MD5 check sum: 6e991ff952a84172a2a52a1c1e996048
     Pseudo is Ultrasoft + core correction, Zval = 19.0
     Generated by new atomic code, or converted to UPF format
     Using radial grid of  867 points,  6 beta functions with: 
                l(1) =   0
                l(2) =   0
                l(3) =   1
                l(4) =   1
                l(5) =   2
                l(6) =   2
     Q(r) pseudized with  8 coefficients,  rinner =    1.150   1.150   1.150
                                                       1.150   1.150

     PseudoPot. # 2 for C  read from file:
     /deac/thonhauserGrp/chakrad/calculations/atomandmolecule-qe6.2.1-i2012-C6modif/all_pbe_UPF_v1.5/c_pbe_v1.2.uspp.F.UPF
     MD5 check sum: d1aef80898a10debaa0f26306b886e00
     Pseudo is Ultrasoft + core correction, Zval =  4.0
     Generated by new atomic code, or converted to UPF format
     Using radial grid of  721 points,  4 beta functions with: 
                l(1) =   0
                l(2) =   0
                l(3) =   1
                l(4) =   1
     Q(r) pseudized with  8 coefficients,  rinner =    1.100   1.100   1.100


     PseudoPot. # 3 for H  read from file:
     /deac/thonhauserGrp/chakrad/calculations/atomandmolecule-qe6.2.1-i2012-C6modif/all_pbe_UPF_v1.5/h_pbe_v1.4.uspp.F.UPF
     MD5 check sum: 761ae9a214b05c3daf00ab9f6b793d6f
     Pseudo is Ultrasoft, Zval =  1.0
     Generated by new atomic code, or converted to UPF format
     Using radial grid of  615 points,  2 beta functions with: 
                l(1) =   0
                l(2) =   0
     Q(r) pseudized with  8 coefficients,  rinner =    0.700

     vdW kernel table read from file vdW_kernel_table
     MD5 check sum: cc9485f6209b1096fbef62427c856dab

     atomic species   valence    mass     pseudopotential
        Cu            19.00     1.00000     Cu( 1.00)
        C              4.00     1.00000     C ( 1.00)
        H              1.00     1.00000     H ( 1.00)

     No symmetry found



   Cartesian axes

     site n.     atom                  positions (alat units)
         1           Cu  tau(   1) = (   0.1666667   0.0962250   0.2552686  )
         2           Cu  tau(   2) = (   0.5000000   0.0962250   0.2552686  )
         3           Cu  tau(   3) = (   0.8333333   0.0962250   0.2552686  )
         4           Cu  tau(   4) = (   0.3333333   0.3849002   0.2552686  )
         5           Cu  tau(   5) = (   0.6666667   0.3849002   0.2552686  )
         6           Cu  tau(   6) = (   1.0000000   0.3849002   0.2552686  )
         7           Cu  tau(   7) = (   0.5000000   0.6735753   0.2552686  )
         8           Cu  tau(   8) = (   0.8333333   0.6735753   0.2552686  )
         9           Cu  tau(   9) = (   1.1666667   0.6735753   0.2552686  )
        10           Cu  tau(  10) = (   0.0000000   0.1924501   0.5274341  )
        11           Cu  tau(  11) = (   0.3333333   0.1924501   0.5274341  )
        12           Cu  tau(  12) = (   0.6666667   0.1924501   0.5274341  )
        13           Cu  tau(  13) = (   0.1666667   0.4811252   0.5274341  )
        14           Cu  tau(  14) = (   0.5000000   0.4811252   0.5274341  )
        15           Cu  tau(  15) = (   0.8333333   0.4811252   0.5274341  )
        16           Cu  tau(  16) = (   0.3333333   0.7698004   0.5274341  )
        17           Cu  tau(  17) = (   0.6666667   0.7698004   0.5274341  )
        18           Cu  tau(  18) = (   1.0000000   0.7698004   0.5274341  )
        19           Cu  tau(  19) = (   0.0000000   0.0000000   0.7995997  )
        20           Cu  tau(  20) = (   0.3333333   0.0000000   0.7995997  )
        21           Cu  tau(  21) = (   0.6666667   0.0000000   0.7995997  )
        22           Cu  tau(  22) = (   0.1666667   0.2886751   0.7995997  )
        23           Cu  tau(  23) = (   0.5000000   0.2886751   0.7995997  )
        24           Cu  tau(  24) = (   0.8333333   0.2886751   0.7995997  )
        25           Cu  tau(  25) = (   0.3333333   0.5773503   0.7995997  )
        26           Cu  tau(  26) = (   0.6666667   0.5773503   0.7995997  )
        27           Cu  tau(  27) = (   1.0000000   0.5773503   0.7995997  )
        28           Cu  tau(  28) = (   0.1666659   0.0962246   1.0691130  )
        29           Cu  tau(  29) = (   0.5000000   0.0962241   1.0691104  )
        30           Cu  tau(  30) = (   0.8333341   0.0962246   1.0691130  )
        31           Cu  tau(  31) = (   0.3333325   0.3849006   1.0691104  )
        32           Cu  tau(  32) = (   0.6666675   0.3849006   1.0691104  )
        33           Cu  tau(  33) = (   1.0000000   0.3849003   1.0691143  )
        34           Cu  tau(  34) = (   0.5000000   0.6735762   1.0691130  )
        35           Cu  tau(  35) = (   0.8333334   0.6735753   1.0691143  )
        36           Cu  tau(  36) = (   1.1666666   0.6735753   1.0691143  )
        37           Cu  tau(  37) = (   0.0000000   0.1924486   1.3387540  )
        38           Cu  tau(  38) = (   0.3333330   0.1924499   1.3387465  )
        39           Cu  tau(  39) = (   0.6666670   0.1924499   1.3387465  )
        40           Cu  tau(  40) = (   0.1666676   0.4811247   1.3387504  )
        41           Cu  tau(  41) = (   0.5000000   0.4811256   1.3387465  )
        42           Cu  tau(  42) = (   0.8333324   0.4811247   1.3387504  )
        43           Cu  tau(  43) = (   0.3333346   0.7698011   1.3387540  )
        44           Cu  tau(  44) = (   0.6666654   0.7698011   1.3387540  )
        45           Cu  tau(  45) = (   1.0000000   0.7698014   1.3387504  )
        46           Cu  tau(  46) = (   0.0000000   0.0000000   1.6083750  )
        47           Cu  tau(  47) = (   0.3333333   0.0000005   1.6083624  )
        48           Cu  tau(  48) = (   0.6666667   0.0000005   1.6083624  )
        49           Cu  tau(  49) = (   0.1666671   0.2886748   1.6083624  )
        50           Cu  tau(  50) = (   0.5000000   0.2886751   1.6083553  )
        51           Cu  tau(  51) = (   0.8333329   0.2886748   1.6083624  )
        52           Cu  tau(  52) = (   0.3333338   0.5773500   1.6083624  )
        53           Cu  tau(  53) = (   0.6666662   0.5773500   1.6083624  )
        54           Cu  tau(  54) = (   1.0000000   0.5773503   1.6083570  )
        55           C   tau(  55) = (   0.6567407   0.3959883   2.0358928  )
        56           C   tau(  56) = (   0.5046394   0.3028152   2.0358928  )
        57           C   tau(  57) = (   0.3478975   0.3879497   2.0358928  )
        58           C   tau(  58) = (   0.3432593   0.5662630   2.0358928  )
        59           C   tau(  59) = (   0.4953606   0.6594361   2.0358928  )
        60           C   tau(  60) = (   0.6521025   0.5743016   2.0358928  )
        61           H   tau(  61) = (   0.7789959   0.3295665   2.0359710  )
        62           H   tau(  62) = (   0.5082587   0.1637263   2.0359711  )
        63           H   tau(  63) = (   0.2292624   0.3152577   2.0359710  )
        64           H   tau(  64) = (   0.2210041   0.6326847   2.0359710  )
        65           H   tau(  65) = (   0.4917413   0.7985249   2.0359711  )
        66           H   tau(  66) = (   0.7707376   0.6469936   2.0359710  )

     number of k points=    10  gaussian smearing, width (Ry)=  0.0200
                       cart. coord. in units 2pi/alat
        k(    1) = (   0.0000000   0.0000000   0.0000000), wk =   0.1250000
        k(    2) = (   0.0000000   0.2886751   0.0000000), wk =   0.2500000
        k(    3) = (   0.0000000  -0.5773503   0.0000000), wk =   0.1250000
        k(    4) = (   0.2500000  -0.7216878   0.0000000), wk =   0.2500000
        k(    5) = (  -0.2500000   0.1443376   0.0000000), wk =   0.2500000
        k(    6) = (   0.2500000   0.1443376   0.0000000), wk =   0.2500000
        k(    7) = (   0.5000000  -0.2886751   0.0000000), wk =   0.1250000
        k(    8) = (  -0.5000000  -0.2886751   0.0000000), wk =   0.1250000
        k(    9) = (  -0.2500000  -0.7216878   0.0000000), wk =   0.2500000
        k(   10) = (  -0.5000000  -0.5773503   0.0000000), wk =   0.2500000

     Dense  grid:  2552337 G-vectors     FFT dimensions: ( 120, 120, 432)

     Smooth grid:   491295 G-vectors     FFT dimensions: (  72,  72, 243)

     Estimated max dynamical RAM per process >       1.14 GB

     Estimated total dynamical RAM >      18.26 GB

     Initial potential from superposition of free atoms
     Check: negative starting charge=   -0.000758

     starting charge 1001.99960, renormalised to 1056.00000

     negative rho (up, down):  7.993E-04 0.000E+00


     %%%%%%%%%%%%%%%%%%%%%%%%%%%%%%%%%%%%%%%%%%%%%%%%%%%%%%%%%%%%%%%%%%%%%%%%
     %                                                                      %
     % You are using vdW-DF, which was implemented by the Thonhauser group. %
     % Please cite the following two papers that made this development      %
     % possible and the two reviews that describe the various versions:     %
     %                                                                      %
     %   T. Thonhauser et al., PRL 115, 136402 (2015).                      %
     %   T. Thonhauser et al., PRB 76, 125112 (2007).                       %
     %   K. Berland et al., Rep. Prog. Phys. 78, 066501 (2015).             %
     %   D.C. Langreth et al., J. Phys.: Condens. Matter 21, 084203 (2009). %
     %                                                                      %
     %                                                                      %
     % If you are calculating the stress with vdW-DF, please also cite:     %
     %                                                                      %
     %   R. Sabatini et al., J. Phys.: Condens. Matter 24, 424209 (2012).   %
     %                                                                      %
     %%%%%%%%%%%%%%%%%%%%%%%%%%%%%%%%%%%%%%%%%%%%%%%%%%%%%%%%%%%%%%%%%%%%%%%%


     Starting wfcs are  732 randomized atomic wfcs

     total cpu time spent up to now is      104.3 secs

     Self-consistent Calculation

     iteration #  1     ecut=    50.00 Ry     beta= 0.30
     Davidson diagonalization with overlap
     ethr =  1.00E-02,  avg # of iterations =  5.5

     negative rho (up, down):  4.853E-04 0.000E+00

     total cpu time spent up to now is     1289.0 secs

     total energy              =  -18937.80069480 Ry
     Harris-Foulkes estimate   =  -22007.63025320 Ry
     estimated scf accuracy    <    6067.44343896 Ry

     iteration #  2     ecut=    50.00 Ry     beta= 0.30
     Davidson diagonalization with overlap
     ethr =  1.00E-02,  avg # of iterations = 19.2

     negative rho (up, down):  5.207E-04 0.000E+00

     total cpu time spent up to now is     4145.8 secs

     total energy              =  -19246.90051962 Ry
     Harris-Foulkes estimate   =  -38989.92841391 Ry
     estimated scf accuracy    <  281592.02826305 Ry

     iteration #  3     ecut=    50.00 Ry     beta= 0.30
     Davidson diagonalization with overlap
     ethr =  1.00E-02,  avg # of iterations =  7.4

     negative rho (up, down):  5.994E-04 0.000E+00

     total cpu time spent up to now is     5651.4 secs

     total energy              =  -21748.00498602 Ry
     Harris-Foulkes estimate   =  -23420.35337087 Ry
     estimated scf accuracy    <   42687.54337052 Ry

     iteration #  4     ecut=    50.00 Ry     beta= 0.30
     Davidson diagonalization with overlap
     ethr =  1.00E-02,  avg # of iterations =  7.3

     negative rho (up, down):  8.134E-04 0.000E+00

     total cpu time spent up to now is     6717.8 secs

     total energy              =  -21747.14265527 Ry
     Harris-Foulkes estimate   =  -22128.76624740 Ry
     estimated scf accuracy    <   10332.51512280 Ry

     iteration #  5     ecut=    50.00 Ry     beta= 0.30
     Davidson diagonalization with overlap
     ethr =  1.00E-02,  avg # of iterations =  6.0

     negative rho (up, down):  1.724E-04 0.000E+00

     total cpu time spent up to now is     7955.8 secs

     total energy              =  -21705.98881812 Ry
     Harris-Foulkes estimate   =  -22157.45654158 Ry
     estimated scf accuracy    <    9228.15937796 Ry

     iteration #  6     ecut=    50.00 Ry     beta= 0.30
     Davidson diagonalization with overlap
     ethr =  1.00E-02,  avg # of iterations =  6.0

     negative rho (up, down):  2.139E-04 0.000E+00

     total cpu time spent up to now is     9001.0 secs

     total energy              =  -21870.23746716 Ry
     Harris-Foulkes estimate   =  -21976.67364284 Ry
     estimated scf accuracy    <    1092.60065388 Ry

     iteration #  7     ecut=    50.00 Ry     beta= 0.30
     Davidson diagonalization with overlap
     ethr =  1.00E-02,  avg # of iterations =  3.3

     negative rho (up, down):  2.942E-04 0.000E+00

     total cpu time spent up to now is     9373.3 secs

     total energy              =  -21915.20960832 Ry
     Harris-Foulkes estimate   =  -21941.54139698 Ry
     estimated scf accuracy    <    1104.19881983 Ry

     iteration #  8     ecut=    50.00 Ry     beta= 0.30
     Davidson diagonalization with overlap
     ethr =  1.00E-02,  avg # of iterations =  1.6

     negative rho (up, down):  4.872E-04 0.000E+00

     total cpu time spent up to now is     9624.0 secs

     total energy              =  -21910.91355551 Ry
     Harris-Foulkes estimate   =  -21927.06474308 Ry
     estimated scf accuracy    <     134.79721933 Ry

     iteration #  9     ecut=    50.00 Ry     beta= 0.30
     Davidson diagonalization with overlap
     ethr =  1.00E-02,  avg # of iterations =  3.0

     negative rho (up, down):  6.189E-04 0.000E+00

     total cpu time spent up to now is     9908.8 secs

     total energy              =  -21912.41339281 Ry
     Harris-Foulkes estimate   =  -21917.44484842 Ry
     estimated scf accuracy    <     114.95123548 Ry

     iteration # 10     ecut=    50.00 Ry     beta= 0.30
     Davidson diagonalization with overlap
     ethr =  1.00E-02,  avg # of iterations =  1.0

     negative rho (up, down):  2.448E-02 0.000E+00

     total cpu time spent up to now is    10137.6 secs

     total energy              =  -21896.50498647 Ry
     Harris-Foulkes estimate   =  -21913.17142060 Ry
     estimated scf accuracy    <      70.62417064 Ry

     iteration # 11     ecut=    50.00 Ry     beta= 0.30
     Davidson diagonalization with overlap
     ethr =  6.69E-03,  avg # of iterations =  4.3

     negative rho (up, down):  2.328E-05 0.000E+00

     total cpu time spent up to now is    10631.4 secs

     total energy              =  -21882.52683624 Ry
     Harris-Foulkes estimate   =  -21924.95639866 Ry
     estimated scf accuracy    <    1345.99295173 Ry

     iteration # 12     ecut=    50.00 Ry     beta= 0.30
     Davidson diagonalization with overlap
     ethr =  6.69E-03,  avg # of iterations =  3.3

     negative rho (up, down):  4.244E-05 0.000E+00

     total cpu time spent up to now is    10956.1 secs

     total energy              =  -21902.22939622 Ry
     Harris-Foulkes estimate   =  -21906.89950831 Ry
     estimated scf accuracy    <      58.27773491 Ry

     iteration # 13     ecut=    50.00 Ry     beta= 0.30
     Davidson diagonalization with overlap
     ethr =  5.52E-03,  avg # of iterations =  2.0

     negative rho (up, down):  3.852E-05 0.000E+00

     total cpu time spent up to now is    11222.2 secs

     total energy              =  -21903.93309634 Ry
     Harris-Foulkes estimate   =  -21904.45156613 Ry
     estimated scf accuracy    <      15.21329922 Ry

     iteration # 14     ecut=    50.00 Ry     beta= 0.30
     Davidson diagonalization with overlap
     ethr =  1.44E-03,  avg # of iterations =  4.4

     negative rho (up, down):  3.352E-05 0.000E+00

     total cpu time spent up to now is    11567.1 secs

     total energy              =  -21904.11039799 Ry
     Harris-Foulkes estimate   =  -21904.48925722 Ry
     estimated scf accuracy    <       8.97225203 Ry

     iteration # 15     ecut=    50.00 Ry     beta= 0.30
     Davidson diagonalization with overlap
     ethr =  8.50E-04,  avg # of iterations =  4.1

     negative rho (up, down):  4.190E-05 0.000E+00

     total cpu time spent up to now is    11889.4 secs

     total energy              =  -21904.04048469 Ry
     Harris-Foulkes estimate   =  -21904.25215178 Ry
     estimated scf accuracy    <       6.91515834 Ry

     iteration # 16     ecut=    50.00 Ry     beta= 0.30
     Davidson diagonalization with overlap
     ethr =  6.55E-04,  avg # of iterations =  1.5

     negative rho (up, down):  5.454E-05 0.000E+00

     total cpu time spent up to now is    12134.1 secs

     total energy              =  -21903.91461224 Ry
     Harris-Foulkes estimate   =  -21904.11258507 Ry
     estimated scf accuracy    <       5.91209161 Ry

     iteration # 17     ecut=    50.00 Ry     beta= 0.30
     Davidson diagonalization with overlap
     ethr =  5.60E-04,  avg # of iterations =  1.2

     negative rho (up, down):  6.494E-05 0.000E+00

     total cpu time spent up to now is    12373.3 secs

     total energy              =  -21903.90676688 Ry
     Harris-Foulkes estimate   =  -21903.95727526 Ry
     estimated scf accuracy    <       2.56760787 Ry

     iteration # 18     ecut=    50.00 Ry     beta= 0.30
     Davidson diagonalization with overlap
     ethr =  2.43E-04,  avg # of iterations =  3.1

     negative rho (up, down):  9.776E-05 0.000E+00

     total cpu time spent up to now is    12657.5 secs

     total energy              =  -21903.84090913 Ry
     Harris-Foulkes estimate   =  -21903.91608618 Ry
     estimated scf accuracy    <       2.39117076 Ry

     iteration # 19     ecut=    50.00 Ry     beta= 0.30
     Davidson diagonalization with overlap
     ethr =  2.26E-04,  avg # of iterations =  5.7

     negative rho (up, down):  1.262E-04 0.000E+00

     total cpu time spent up to now is    13040.3 secs

     total energy              =  -21903.82482537 Ry
     Harris-Foulkes estimate   =  -21903.85075583 Ry
     estimated scf accuracy    <       0.99041974 Ry

     iteration # 20     ecut=    50.00 Ry     beta= 0.30
     Davidson diagonalization with overlap
     ethr =  9.38E-05,  avg # of iterations =  4.7

     negative rho (up, down):  4.193E-04 0.000E+00

     total cpu time spent up to now is    13392.6 secs

     total energy              =  -21903.72835591 Ry
     Harris-Foulkes estimate   =  -21903.82731442 Ry
     estimated scf accuracy    <       0.91052298 Ry

     iteration # 21     ecut=    50.00 Ry     beta= 0.30
     Davidson diagonalization with overlap
     ethr =  8.62E-05,  avg # of iterations =  7.6

     negative rho (up, down):  5.942E-04 0.000E+00

     total cpu time spent up to now is    13882.5 secs

     total energy              =  -21903.76086999 Ry
     Harris-Foulkes estimate   =  -21903.77447048 Ry
     estimated scf accuracy    <       0.18767729 Ry

     iteration # 22     ecut=    50.00 Ry     beta= 0.30
     Davidson diagonalization with overlap
     ethr =  1.78E-05,  avg # of iterations =  4.4

     negative rho (up, down):  8.108E-04 0.000E+00

     total cpu time spent up to now is    14221.0 secs

     total energy              =  -21903.76590117 Ry
     Harris-Foulkes estimate   =  -21903.76753400 Ry
     estimated scf accuracy    <       0.00943662 Ry

     iteration # 23     ecut=    50.00 Ry     beta= 0.30
     Davidson diagonalization with overlap
     ethr =  8.94E-07,  avg # of iterations =  9.3

     negative rho (up, down):  1.047E-03 0.000E+00

     total cpu time spent up to now is    14793.7 secs

     total energy              =  -21903.76660148 Ry
     Harris-Foulkes estimate   =  -21903.76698302 Ry
     estimated scf accuracy    <       0.00359106 Ry

     iteration # 24     ecut=    50.00 Ry     beta= 0.30
     Davidson diagonalization with overlap
     ethr =  3.40E-07,  avg # of iterations =  4.9

     negative rho (up, down):  1.279E-03 0.000E+00

     total cpu time spent up to now is    15138.4 secs

     total energy              =  -21903.76700111 Ry
     Harris-Foulkes estimate   =  -21903.76699441 Ry
     estimated scf accuracy    <       0.00124806 Ry

     iteration # 25     ecut=    50.00 Ry     beta= 0.30
     Davidson diagonalization with overlap
     ethr =  1.18E-07,  avg # of iterations =  5.7

     negative rho (up, down):  1.478E-03 0.000E+00

     total cpu time spent up to now is    15521.6 secs

     total energy              =  -21903.76714194 Ry
     Harris-Foulkes estimate   =  -21903.76709906 Ry
     estimated scf accuracy    <       0.00022441 Ry

     iteration # 26     ecut=    50.00 Ry     beta= 0.30
     Davidson diagonalization with overlap
     ethr =  2.13E-08,  avg # of iterations =  5.6

     negative rho (up, down):  1.751E-03 0.000E+00

     total cpu time spent up to now is    15892.3 secs

     total energy              =  -21903.76720171 Ry
     Harris-Foulkes estimate   =  -21903.76717183 Ry
     estimated scf accuracy    <       0.00009938 Ry

     iteration # 27     ecut=    50.00 Ry     beta= 0.30
     Davidson diagonalization with overlap
     ethr =  9.41E-09,  avg # of iterations =  6.5

     negative rho (up, down):  2.049E-03 0.000E+00

     total cpu time spent up to now is    16293.7 secs

     total energy              =  -21903.76722355 Ry
     Harris-Foulkes estimate   =  -21903.76721450 Ry
     estimated scf accuracy    <       0.00003795 Ry

     iteration # 28     ecut=    50.00 Ry     beta= 0.30
     Davidson diagonalization with overlap
     ethr =  3.59E-09,  avg # of iterations =  4.7

     negative rho (up, down):  2.255E-03 0.000E+00

     total cpu time spent up to now is    16637.8 secs

     total energy              =  -21903.76722850 Ry
     Harris-Foulkes estimate   =  -21903.76722949 Ry
     estimated scf accuracy    <       0.00002777 Ry

     iteration # 29     ecut=    50.00 Ry     beta= 0.30
     Davidson diagonalization with overlap
     ethr =  2.63E-09,  avg # of iterations =  2.0

     negative rho (up, down):  2.308E-03 0.000E+00

     total cpu time spent up to now is    16894.6 secs

     total energy              =  -21903.76722972 Ry
     Harris-Foulkes estimate   =  -21903.76723156 Ry
     estimated scf accuracy    <       0.00003270 Ry

     iteration # 30     ecut=    50.00 Ry     beta= 0.30
     Davidson diagonalization with overlap
     ethr =  2.63E-09,  avg # of iterations =  1.0

     negative rho (up, down):  2.435E-03 0.000E+00

     total cpu time spent up to now is    17117.9 secs

     total energy              =  -21903.76723038 Ry
     Harris-Foulkes estimate   =  -21903.76723123 Ry
     estimated scf accuracy    <       0.00000756 Ry

     iteration # 31     ecut=    50.00 Ry     beta= 0.30
     Davidson diagonalization with overlap
     ethr =  7.16E-10,  avg # of iterations =  2.0

     negative rho (up, down):  2.443E-03 0.000E+00

     total cpu time spent up to now is    17381.4 secs

     total energy              =  -21903.76723061 Ry
     Harris-Foulkes estimate   =  -21903.76723071 Ry
     estimated scf accuracy    <       0.00000052 Ry

     iteration # 32     ecut=    50.00 Ry     beta= 0.30
     Davidson diagonalization with overlap
     ethr =  4.93E-11,  avg # of iterations =  2.0

     negative rho (up, down):  2.471E-03 0.000E+00

     total cpu time spent up to now is    17643.8 secs

     total energy              =  -21903.76723043 Ry
     Harris-Foulkes estimate   =  -21903.76723069 Ry
     estimated scf accuracy    <       0.00000027 Ry

     iteration # 33     ecut=    50.00 Ry     beta= 0.30
     Davidson diagonalization with overlap
     ethr =  2.55E-11,  avg # of iterations =  2.0

     negative rho (up, down):  2.478E-03 0.000E+00

     total cpu time spent up to now is    17891.9 secs

     total energy              =  -21903.76723040 Ry
     Harris-Foulkes estimate   =  -21903.76723046 Ry
     estimated scf accuracy    <       0.00000005 Ry

     iteration # 34     ecut=    50.00 Ry     beta= 0.30
     Davidson diagonalization with overlap
     ethr =  4.29E-12,  avg # of iterations =  2.0

     negative rho (up, down):  2.481E-03 0.000E+00

     total cpu time spent up to now is    18167.8 secs

     total energy              =  -21903.76723037 Ry
     Harris-Foulkes estimate   =  -21903.76723041 Ry
     estimated scf accuracy    <       0.00000003 Ry

     iteration # 35     ecut=    50.00 Ry     beta= 0.30
     Davidson diagonalization with overlap
     ethr =  3.03E-12,  avg # of iterations =  2.0

     negative rho (up, down):  2.484E-03 0.000E+00

     total cpu time spent up to now is    18421.2 secs

     total energy              =  -21903.76723034 Ry
     Harris-Foulkes estimate   =  -21903.76723038 Ry
     estimated scf accuracy    <       0.00000009 Ry

     iteration # 36     ecut=    50.00 Ry     beta= 0.30
     Davidson diagonalization with overlap
     ethr =  3.03E-12,  avg # of iterations =  2.0

     negative rho (up, down):  2.484E-03 0.000E+00

     total cpu time spent up to now is    18673.8 secs

     total energy              =  -21903.76723035 Ry
     Harris-Foulkes estimate   =  -21903.76723035 Ry
     estimated scf accuracy    <       0.00000001 Ry

     iteration # 37     ecut=    50.00 Ry     beta= 0.30
     Davidson diagonalization with overlap
     ethr =  1.27E-12,  avg # of iterations =  2.0

     negative rho (up, down):  2.486E-03 0.000E+00

     total cpu time spent up to now is    18925.4 secs

     End of self-consistent calculation

          k = 0.0000 0.0000 0.0000 ( 61453 PWs)   bands (ev):

  -107.8125-107.8093-107.8054-107.8054-107.8052-107.8047-107.8047-107.8044
  -107.8033-107.8018-107.8018-107.8015-107.8015-107.8008-107.8008-107.8004
  -107.8001-107.8001-107.7961-107.7961-107.7960-107.7948-107.7948-107.7943
  -107.7928-107.7922-107.7922-107.7908-107.7872-107.7860-107.7860-107.7859
  -107.7859-107.7849-107.7836-107.7826-107.5853-107.5812-107.5812-107.5811
  -107.5796-107.5796-107.5762-107.5741-107.5741-107.5519-107.5469-107.5469
  -107.5469-107.5466-107.5466-107.5466-107.5442-107.5442 -65.2661 -65.2539
   -65.2526 -65.2526 -65.2521 -65.2521 -65.2513 -65.2455 -65.2452 -65.2452
   -65.2445 -65.2445 -65.2438 -65.2438 -65.2437 -65.2409 -65.2407 -65.2407
   -65.2403 -65.2387 -65.2337 -65.2337 -65.2330 -65.2320 -65.2316 -65.2316
   -65.2303 -65.2302 -65.2302 -65.2297 -65.2297 -65.2288 -65.2288 -65.2287
   -65.2264 -65.2264 -65.2264 -65.2258 -65.2209 -65.2209 -65.2208 -65.2200
   -65.2198 -65.2198 -65.2192 -65.2192 -65.2156 -65.2156 -65.2153 -65.2129
   -65.2127 -65.2124 -65.2124 -65.2123 -65.2123 -65.2119 -65.2086 -65.2054
   -65.2054 -65.2044 -65.2044 -65.2041 -65.2037 -65.2037 -65.2033 -65.2026
   -65.2026 -65.2026 -65.2013 -65.2006 -65.2006 -65.2006 -65.2006 -65.1978
   -65.1978 -65.1946 -65.1943 -65.1943 -65.1942 -65.1940 -65.1940 -65.1934
   -65.1934 -65.1930 -65.1925 -65.1924 -65.1924 -65.1901 -65.1878 -65.1878
   -65.1875 -65.1869 -65.1869 -65.1869 -65.1866 -65.1866 -65.1810 -65.1810
   -65.1797 -65.1797 -65.1796 -65.1790 -65.1788 -65.1788 -65.1752 -65.1752
   -65.1684 -65.1684 -65.0376 -65.0376 -65.0371 -65.0353 -65.0352 -65.0352
   -65.0331 -65.0319 -65.0319 -65.0296 -65.0063 -65.0061 -65.0061 -65.0061
   -65.0059 -65.0059 -65.0035 -65.0035 -65.0032 -65.0029 -65.0027 -65.0009
   -65.0009 -64.9991 -64.9991 -64.9982 -64.9875 -64.9875 -64.9708 -64.9708
   -64.9707 -64.9707 -64.9707 -64.9704 -64.9629 -64.9595 -64.9595 -64.9590
   -64.9585 -64.9585 -64.9574 -64.9574 -64.9531 -64.9511 -64.9511 -64.9238
   -64.9192 -64.9192 -64.9192 -64.9188 -64.9188 -64.9188 -64.9165 -64.9165
   -12.7463  -9.9977  -9.9975  -6.4021  -6.4016  -4.4763  -4.0770  -3.4583
    -2.8752  -2.5120  -2.4908  -1.8375  -1.8374  -1.3990  -1.1126  -1.1114
    -1.1114  -1.1112  -1.1112  -1.1112  -0.7543  -0.7082  -0.7082  -0.7076
    -0.7076  -0.7076  -0.6746  -0.4431  -0.2107  -0.2093  -0.2093  -0.2081
    -0.2081  -0.2077  -0.1920   0.0975   0.0977   0.2405   0.2405   0.2432
     0.2448   0.2448   0.2477   0.5903   0.5903   0.5931   0.5934   0.5934
     0.5960   0.7188   0.7188   0.7194   0.7197   0.7197   0.7204   0.7681
     0.7681   0.7688   0.7688   0.7689   0.7697   0.7979   0.7979   0.8118
     0.8118   0.8218   0.8218   0.9176   0.9176   0.9265   0.9265   0.9438
     0.9438   0.9449   0.9460   0.9460   0.9471   0.9568   0.9568   0.9579
     0.9579   1.0035   1.0035   1.0500   1.0500   1.1525   1.1525   1.1562
     1.1562   1.1583   1.1586   1.1586   1.1602   1.1946   1.1946   1.3890
     1.3890   1.3949   1.3949   1.3951   1.3968   1.5268   1.5268   1.5352
     1.5352   1.5437   1.5437   1.5488   1.5488   1.5493   1.5502   1.5893
     1.5908   1.5909   1.6079   1.6579   1.6579   1.6623   1.6623   1.6628
     1.6630   1.6749   1.6750   1.7019   1.7019   1.7316   1.7373   1.7373
     1.7385   1.7385   1.7481   1.7481   1.7482   1.7494   1.7882   1.7882
     1.7951   1.7951   1.8002   1.8004   1.8004   1.8009   1.8204   1.8205
     1.8205   1.8212   1.8213   1.8213   1.8272   1.8272   1.8419   1.8737
     1.8737   1.9348   1.9348   1.9472   1.9480   1.9480   1.9508   1.9570
     1.9589   1.9664   1.9664   1.9856   1.9856   1.9982   1.9983   2.0212
     2.0212   2.0216   2.0217   2.0219   2.0225   2.0230   2.0230   2.0473
     2.0473   2.2107   2.2107   2.2109   2.2149   2.2586   2.2586   2.2795
     2.2796   2.2796   2.2803   2.2804   2.2804   2.3393   2.3393   2.3415
     2.3432   2.3574   2.3574   2.3608   2.3608   2.3832   2.3832   2.3884
     2.3884   2.4299   2.4492   2.4492   2.4779   2.4779   2.4813   2.4813
     2.4825   2.4868   2.5002   2.5003   2.5100   2.5101   2.5101   2.5105
     2.5105   2.5108   2.5115   2.5115   2.5172   2.5172   2.5847   2.5847
     2.6500   2.6502   2.6502   2.6506   2.6508   2.6508   2.7057   2.7065
     2.7065   2.7083   2.7100   2.7101   2.7101   2.7105   2.7106   2.7106
     2.7160   2.7160   2.7715   2.7715   2.7781   2.7782   2.7782   2.7789
     2.7789   2.7789   2.7899   2.7900   2.7900   2.7904   2.7905   2.7905
     2.8136   2.8137   2.8137   2.8141   2.8142   2.8142   2.8400   2.8400
     2.8564   2.8564   2.8780   2.8794   2.8794   2.8800   2.8800   2.8806
     2.8877   2.8878   2.9083   2.9086   2.9086   2.9090   2.9090   2.9093
     2.9360   2.9360   2.9389   2.9389   2.9422   2.9422   2.9618   2.9619
     2.9745   2.9746   2.9746   2.9755   2.9755   2.9757   2.9998   2.9998
     3.0003   3.0036   3.0036   3.0076   3.0403   3.0403   3.0533   3.0533
     3.0533   3.0543   3.0544   3.0544   3.8832   3.9789   3.9789   3.9816
     4.0079   4.0244   4.0244   4.4845   5.4007   5.4007   5.4121   5.4390
     5.4679   5.4679   6.9783   6.9784   7.0373   7.1766   7.2834   7.2835
     7.2926   7.4487   7.4489   7.8480   7.8480   7.8481   7.8483   7.8643
     7.8643   8.1801   8.2401   8.2401   8.2617   8.2617   8.4729   8.6529
     8.6551   8.7925   8.8828   8.8828   8.9101   8.9111   9.0162   9.0626
     9.0626   9.2832   9.4725   9.5324   9.5324   9.5393   9.5393   9.8252
     9.8254   9.8764   9.9151   9.9173  10.5585  10.5896  10.6778  10.6778
    10.7088  10.7088  10.8634  10.8634  10.9067  10.9067  10.9576  11.0739
    11.0739  11.1132  11.2426  11.3281  11.3281  11.3576  11.3576  11.3783
    11.4914  11.6509  11.6509  11.7996  11.8329  11.8330  11.8718  11.8719
    11.9163  11.9245  11.9245  11.9572  11.9573  12.0322  12.1293  12.2299
    12.2299  12.2548  12.3120  12.3535  12.3536  12.4766  12.4766  12.7388
    12.8850  12.8878  12.8879  13.0100  13.0100  13.0226  13.0378  13.0477
    13.1268  13.1385

          k = 0.0000 0.2887 0.0000 ( 61417 PWs)   bands (ev):

  -107.8121-107.8093-107.8068-107.8059-107.8053-107.8045-107.8038-107.8035
  -107.8029-107.8022-107.8021-107.8014-107.8014-107.8011-107.8008-107.8001
  -107.8001-107.7998-107.7972-107.7963-107.7959-107.7946-107.7945-107.7938
  -107.7928-107.7924-107.7923-107.7904-107.7878-107.7866-107.7865-107.7854
  -107.7852-107.7845-107.7839-107.7827-107.5849-107.5822-107.5813-107.5807
  -107.5795-107.5794-107.5762-107.5741-107.5740-107.5514-107.5485-107.5474
  -107.5473-107.5459-107.5459-107.5454-107.5444-107.5444 -65.2647 -65.2558
   -65.2550 -65.2539 -65.2530 -65.2527 -65.2521 -65.2517 -65.2491 -65.2489
   -65.2479 -65.2478 -65.2463 -65.2461 -65.2416 -65.2405 -65.2402 -65.2384
   -65.2376 -65.2367 -65.2363 -65.2362 -65.2360 -65.2356 -65.2339 -65.2338
   -65.2333 -65.2327 -65.2290 -65.2289 -65.2263 -65.2258 -65.2258 -65.2247
   -65.2245 -65.2237 -65.2232 -65.2229 -65.2210 -65.2209 -65.2187 -65.2186
   -65.2158 -65.2153 -65.2150 -65.2147 -65.2139 -65.2138 -65.2128 -65.2120
   -65.2114 -65.2106 -65.2099 -65.2092 -65.2089 -65.2084 -65.2077 -65.2072
   -65.2068 -65.2055 -65.2050 -65.2049 -65.2046 -65.2045 -65.2043 -65.2021
   -65.2018 -65.2000 -65.1998 -65.1991 -65.1989 -65.1978 -65.1975 -65.1973
   -65.1968 -65.1964 -65.1963 -65.1958 -65.1956 -65.1955 -65.1954 -65.1941
   -65.1939 -65.1925 -65.1922 -65.1913 -65.1908 -65.1904 -65.1902 -65.1899
   -65.1897 -65.1895 -65.1880 -65.1865 -65.1864 -65.1845 -65.1833 -65.1832
   -65.1832 -65.1821 -65.1817 -65.1796 -65.1795 -65.1788 -65.1763 -65.1756
   -65.1725 -65.1694 -65.0475 -65.0425 -65.0420 -65.0399 -65.0393 -65.0286
   -65.0282 -65.0229 -65.0225 -65.0191 -65.0176 -65.0120 -65.0119 -65.0109
   -65.0107 -65.0054 -65.0041 -65.0029 -64.9999 -64.9996 -64.9989 -64.9988
   -64.9959 -64.9932 -64.9930 -64.9916 -64.9902 -64.9885 -64.9748 -64.9747
   -64.9737 -64.9707 -64.9706 -64.9666 -64.9628 -64.9627 -64.9601 -64.9596
   -64.9595 -64.9588 -64.9573 -64.9572 -64.9531 -64.9511 -64.9510 -64.9234
   -64.9206 -64.9196 -64.9196 -64.9182 -64.9182 -64.9178 -64.9168 -64.9168
   -12.7455 -10.0012  -9.9982  -6.4048  -6.3975  -4.4498  -3.8636  -3.2494
    -2.8478  -2.4945  -2.3121  -2.2608  -1.8873  -1.8450  -1.7127  -1.5498
    -1.5492  -1.2160  -1.0690  -1.0662  -0.9225  -0.6746  -0.4932  -0.4928
    -0.4047  -0.3986  -0.3061  -0.2818  -0.2078  -0.2071  -0.0723  -0.0410
    -0.0343   0.0575   0.0643   0.0654   0.0680   0.1000   0.2413   0.2476
     0.2731   0.3388   0.3390   0.5214   0.5282   0.5591   0.5591   0.5823
     0.5952   0.5952   0.6175   0.6180   0.6627   0.6659   0.6673   0.6683
     0.6798   0.6801   0.7209   0.7210   0.7570   0.7570   0.7862   0.7863
     0.7916   0.8372   0.8381   0.8522   0.8522   0.8736   0.8740   0.8864
     0.8865   0.9178   0.9182   0.9617   1.0297   1.0297   1.0338   1.0595
     1.0596   1.0725   1.0734   1.1075   1.1078   1.1442   1.1465   1.1465
     1.2110   1.2111   1.2319   1.2357   1.2565   1.2568   1.3016   1.3023
     1.3176   1.3388   1.3422   1.3436   1.3709   1.4144   1.4153   1.4320
     1.4325   1.4412   1.4720   1.4777   1.4908   1.5127   1.5131   1.5218
     1.5514   1.5519   1.5798   1.6170   1.6334   1.6424   1.6424   1.6531
     1.6544   1.6560   1.6844   1.6929   1.7005   1.7116   1.7118   1.7277
     1.7299   1.7308   1.7500   1.7541   1.7590   1.7720   1.7833   1.7839
     1.7861   1.7949   1.7953   1.8034   1.8069   1.8225   1.8244   1.8284
     1.8285   1.8323   1.8508   1.8573   1.8616   1.8623   1.8759   1.8840
     1.8884   1.8895   1.8908   1.9233   1.9253   1.9298   1.9311   1.9465
     1.9488   1.9514   1.9654   1.9717   1.9720   1.9742   1.9852   1.9935
     2.0033   2.0176   2.0436   2.0446   2.0581   2.0584   2.0694   2.0699
     2.0709   2.0839   2.0872   2.1125   2.1127   2.1248   2.1262   2.1522
     2.1647   2.1720   2.1987   2.2053   2.2105   2.2108   2.2289   2.2294
     2.2721   2.2895   2.3152   2.3167   2.3233   2.3247   2.3369   2.3377
     2.3660   2.3684   2.3786   2.3792   2.3830   2.3853   2.4148   2.4153
     2.4465   2.4514   2.4556   2.4565   2.4641   2.4894   2.4927   2.4954
     2.4971   2.5008   2.5304   2.5416   2.5458   2.5512   2.5521   2.5689
     2.5734   2.5738   2.5913   2.5941   2.5949   2.5950   2.6051   2.6088
     2.6301   2.6391   2.6796   2.6847   2.6887   2.7162   2.7180   2.7271
     2.7299   2.7307   2.7314   2.7352   2.7532   2.7539   2.7550   2.7679
     2.7718   2.7722   2.7764   2.7867   2.8106   2.8226   2.8227   2.8259
     2.8360   2.8369   2.8554   2.8571   2.8639   2.8655   2.9110   2.9111
     2.9113   2.9172   2.9172   2.9244   2.9338   2.9351   2.9399   2.9441
     2.9458   2.9459   2.9521   2.9523   2.9561   2.9614   2.9695   2.9704
     2.9882   3.0000   3.0001   3.0009   3.0029   3.0074   3.0088   3.0091
     3.0313   3.0398   3.0501   3.0522   3.0542   3.0567   3.0698   3.0709
     3.1354   3.1608   3.2056   3.2917   3.3165   3.3168   3.3975   3.4769
     3.4771   3.7302   3.7796   3.7826   3.7870   3.8085   4.0941   4.3027
     4.4808   4.7545   4.7573   4.9782   5.0635   5.0756   5.1070   5.8443
     5.8447   6.0621   6.1952   6.2200   6.2410   6.2417   6.4804   6.7123
     6.7855   6.9013   6.9217   7.2009   7.2441   7.3757   7.4821   7.7416
     7.7746   7.7865   7.9598   8.0341   8.2342   8.2446   8.2806   8.3990
     8.4027   8.7108   8.7137   8.7570   8.8553   8.9491   9.2602   9.2632
     9.3173   9.4170   9.5714   9.6556   9.7829   9.8288   9.9174   9.9544
    10.0029  10.0112  10.0543  10.1318  10.2606  10.4097  10.4140  10.4563
    10.5241  10.5553  10.6120  10.6599  10.7234  10.7747  10.7799  10.8625
    10.9490  10.9548  10.9712  11.0232  11.0966  11.2425  11.4435  11.4573
    11.4953  11.5191  11.5862  11.5882  11.6899  11.7713  11.9286  11.9593
    12.0449  12.1710  12.2308  12.3129  12.3480  12.4193  12.4779  12.5004
    12.5418  12.5824  12.6469  12.6965  12.8263  12.8365  12.8591  12.8768
    12.9577  13.0238  13.1242  13.1412  13.1934  13.2376  13.2558  13.3708
    13.3947  13.4493

          k = 0.0000-0.5774 0.0000 ( 61408 PWs)   bands (ev):

  -107.8116-107.8093-107.8078-107.8062-107.8053-107.8042-107.8035-107.8030
  -107.8027-107.8024-107.8020-107.8020-107.8018-107.8012-107.8005-107.8002
  -107.7998-107.7991-107.7983-107.7965-107.7961-107.7942-107.7942-107.7937
  -107.7928-107.7925-107.7923-107.7897-107.7888-107.7869-107.7867-107.7851
  -107.7844-107.7844-107.7843-107.7827-107.5843-107.5831-107.5814-107.5807
  -107.5794-107.5792-107.5762-107.5741-107.5740-107.5502-107.5501-107.5476
  -107.5476-107.5452-107.5452-107.5450-107.5449-107.5448 -65.2612 -65.2603
   -65.2581 -65.2567 -65.2532 -65.2529 -65.2518 -65.2516 -65.2507 -65.2505
   -65.2500 -65.2498 -65.2495 -65.2489 -65.2456 -65.2396 -65.2389 -65.2388
   -65.2384 -65.2381 -65.2377 -65.2376 -65.2370 -65.2368 -65.2345 -65.2343
   -65.2338 -65.2333 -65.2272 -65.2267 -65.2260 -65.2257 -65.2252 -65.2246
   -65.2236 -65.2201 -65.2199 -65.2178 -65.2165 -65.2164 -65.2163 -65.2159
   -65.2156 -65.2145 -65.2134 -65.2134 -65.2128 -65.2120 -65.2120 -65.2115
   -65.2091 -65.2090 -65.2088 -65.2084 -65.2083 -65.2079 -65.2072 -65.2062
   -65.2039 -65.2032 -65.2029 -65.2024 -65.2023 -65.2018 -65.2017 -65.2016
   -65.2016 -65.2014 -65.2011 -65.2001 -65.1987 -65.1986 -65.1981 -65.1975
   -65.1974 -65.1970 -65.1955 -65.1950 -65.1945 -65.1943 -65.1942 -65.1937
   -65.1930 -65.1930 -65.1922 -65.1915 -65.1913 -65.1910 -65.1908 -65.1905
   -65.1905 -65.1898 -65.1897 -65.1872 -65.1870 -65.1868 -65.1866 -65.1858
   -65.1843 -65.1834 -65.1829 -65.1829 -65.1810 -65.1806 -65.1795 -65.1789
   -65.1724 -65.1717 -65.0516 -65.0448 -65.0444 -65.0425 -65.0418 -65.0250
   -65.0245 -65.0218 -65.0140 -65.0139 -65.0139 -65.0138 -65.0137 -65.0130
   -65.0117 -65.0111 -65.0053 -65.0042 -65.0036 -65.0007 -64.9990 -64.9953
   -64.9951 -64.9931 -64.9904 -64.9829 -64.9828 -64.9828 -64.9826 -64.9748
   -64.9745 -64.9743 -64.9717 -64.9716 -64.9627 -64.9625 -64.9622 -64.9607
   -64.9595 -64.9588 -64.9573 -64.9571 -64.9531 -64.9511 -64.9510 -64.9223
   -64.9221 -64.9198 -64.9198 -64.9176 -64.9175 -64.9174 -64.9172 -64.9172
   -12.7447 -10.0047  -9.9990  -6.4081  -6.3928  -4.4226  -3.2382  -3.2380
    -2.8201  -2.6424  -2.6412  -2.4982  -1.9418  -1.8527  -1.7435  -1.7247
    -1.7054  -1.7045  -1.1995  -1.1959  -0.8131  -0.6710  -0.5516  -0.4758
    -0.4495  -0.0925   0.0142   0.0877   0.0914   0.0968   0.1110   0.1113
     0.1115   0.1134   0.1138   0.1986   0.2679   0.2757   0.2794   0.2863
     0.2905   0.3094   0.3095   0.3096   0.3098   0.3646   0.3648   0.3652
     0.3652   0.4926   0.5286   0.5286   0.5297   0.5298   0.5651   0.6096
     0.7075   0.7076   0.7078   0.7079   0.7195   0.7421   0.7456   0.7594
     0.7594   0.7607   0.7608   0.8811   0.8813   0.8817   0.8818   0.9036
     0.9048   0.9902   1.0017   1.0019   1.0033   1.0034   1.0417   1.0418
     1.0855   1.0857   1.1531   1.1534   1.1548   1.1550   1.2165   1.2168
     1.2470   1.2481   1.2640   1.2645   1.2662   1.2668   1.2862   1.2863
     1.3141   1.3229   1.3703   1.3860   1.3873   1.4138   1.4150   1.4295
     1.4344   1.4428   1.4431   1.4439   1.4439   1.4984   1.5018   1.5033
     1.5039   1.5047   1.5051   1.5536   1.5601   1.5742   1.5782   1.5800
     1.5802   1.5881   1.5886   1.5886   1.6187   1.6456   1.6721   1.6770
     1.6778   1.6828   1.6926   1.7269   1.7279   1.7283   1.7285   1.7287
     1.7347   1.7430   1.7921   1.7930   1.7976   1.8004   1.8116   1.8123
     1.8439   1.8446   1.8467   1.8474   1.8601   1.8710   1.8718   1.8744
     1.8748   1.8919   1.8946   1.9008   1.9014   1.9307   1.9325   1.9479
     1.9552   1.9656   1.9662   1.9815   2.0250   2.0260   2.0335   2.0343
     2.0365   2.0368   2.0417   2.0445   2.0457   2.0545   2.0549   2.0624
     2.0710   2.0793   2.0816   2.0871   2.0871   2.0946   2.1010   2.1599
     2.1673   2.1679   2.1806   2.2485   2.2487   2.2493   2.2498   2.2514
     2.2538   2.2540   2.2637   2.2643   2.2674   2.2815   2.2909   2.3114
     2.3264   2.3274   2.3275   2.3350   2.3490   2.3493   2.3494   2.3502
     2.3507   2.3583   2.3745   2.3752   2.3790   2.3854   2.3859   2.4657
     2.4848   2.5054   2.5060   2.5331   2.5333   2.5341   2.5348   2.5652
     2.5655   2.5706   2.5840   2.6038   2.6056   2.6094   2.6102   2.6212
     2.6314   2.6465   2.6469   2.6474   2.6474   2.6497   2.6604   2.6792
     2.6801   2.6822   2.6867   2.7353   2.7354   2.7369   2.7374   2.7481
     2.7490   2.7713   2.7723   2.8003   2.8011   2.8081   2.8101   2.8341
     2.8342   2.8572   2.8611   2.8674   2.8811   2.9195   2.9213   2.9358
     2.9381   2.9415   2.9424   2.9598   2.9715   2.9716   2.9749   2.9754
     2.9775   2.9795   2.9965   2.9999   3.0001   3.0002   3.0007   3.0173
     3.0180   3.0187   3.0308   3.0326   3.0482   3.0483   3.0648   3.0649
     3.0656   3.0687   3.0741   3.0886   3.1043   3.1169   3.1172   3.1185
     3.1187   3.2138   3.2403   3.7499   3.7757   3.7803   3.7907   4.2819
     4.3286   4.3289   4.3292   4.3293   4.5961   4.5975   4.5986   4.5990
     4.9359   4.9485   4.9755   5.0747   5.1216   5.1459   5.1544   5.1566
     5.1621   5.4399   5.7780   6.0333   6.0536   6.0857   6.1025   6.1338
     6.1375   6.1517   6.1961   6.5839   6.6609   7.1158   7.2128   7.4442
     7.4459   7.4485   7.6331   7.9053   7.9796   8.1907   8.3089   8.4240
     8.5685   8.5746   8.5748   8.6029   8.9044   8.9411   8.9521   9.1979
     9.2197   9.2225   9.2359   9.2493   9.4557   9.6126   9.6406   9.7761
     9.8168   9.8884   9.8967   9.9183   9.9237  10.2826  10.3070  10.3749
    10.4177  10.4384  10.5104  10.5221  10.5459  10.8088  10.8551  11.0229
    11.0630  11.1577  11.2617  11.2809  11.3625  11.3719  11.4581  11.4891
    11.5105  11.5940  11.7220  12.0343  12.1281  12.1374  12.2514  12.2830
    12.2917  12.3219  12.4305  12.5500  12.7470  12.7804  12.8972  12.9603
    12.9905  13.0403  13.0531  13.1239  13.1291  13.2166  13.2398  13.2550
    13.2756  13.2990  13.3013  13.3538  13.5200  13.6235  13.7019  13.7021
    13.7663  13.8526

          k = 0.2500-0.7217 0.0000 ( 61343 PWs)   bands (ev):

  -107.8116-107.8092-107.8077-107.8069-107.8043-107.8041-107.8039-107.8031
  -107.8030-107.8024-107.8020-107.8019-107.8016-107.8009-107.8007-107.8002
  -107.7998-107.7992-107.7979-107.7973-107.7955-107.7944-107.7942-107.7938
  -107.7928-107.7925-107.7923-107.7898-107.7884-107.7877-107.7860-107.7852
  -107.7848-107.7843-107.7841-107.7827-107.5843-107.5830-107.5818-107.5804
  -107.5794-107.5792-107.5762-107.5742-107.5740-107.5506-107.5491-107.5490
  -107.5462-107.5460-107.5452-107.5451-107.5448-107.5446 -65.2621 -65.2578
   -65.2569 -65.2563 -65.2556 -65.2550 -65.2545 -65.2531 -65.2516 -65.2499
   -65.2495 -65.2485 -65.2458 -65.2443 -65.2436 -65.2432 -65.2431 -65.2407
   -65.2386 -65.2371 -65.2370 -65.2368 -65.2364 -65.2351 -65.2347 -65.2340
   -65.2331 -65.2327 -65.2303 -65.2296 -65.2258 -65.2246 -65.2243 -65.2234
   -65.2211 -65.2208 -65.2202 -65.2198 -65.2194 -65.2171 -65.2162 -65.2159
   -65.2152 -65.2144 -65.2139 -65.2134 -65.2124 -65.2103 -65.2099 -65.2096
   -65.2094 -65.2092 -65.2090 -65.2080 -65.2076 -65.2072 -65.2065 -65.2059
   -65.2054 -65.2042 -65.2039 -65.2037 -65.2035 -65.2030 -65.2015 -65.2005
   -65.2003 -65.2000 -65.1996 -65.1994 -65.1986 -65.1986 -65.1981 -65.1978
   -65.1976 -65.1968 -65.1964 -65.1957 -65.1953 -65.1948 -65.1945 -65.1935
   -65.1927 -65.1925 -65.1923 -65.1921 -65.1919 -65.1918 -65.1916 -65.1914
   -65.1898 -65.1892 -65.1889 -65.1873 -65.1868 -65.1863 -65.1860 -65.1859
   -65.1852 -65.1850 -65.1830 -65.1820 -65.1818 -65.1809 -65.1774 -65.1754
   -65.1753 -65.1716 -65.0499 -65.0485 -65.0462 -65.0395 -65.0363 -65.0346
   -65.0195 -65.0194 -65.0167 -65.0167 -65.0151 -65.0132 -65.0125 -65.0101
   -65.0089 -65.0069 -65.0063 -65.0062 -65.0060 -65.0054 -64.9997 -64.9955
   -64.9945 -64.9906 -64.9866 -64.9846 -64.9837 -64.9837 -64.9780 -64.9779
   -64.9771 -64.9770 -64.9705 -64.9660 -64.9659 -64.9622 -64.9619 -64.9605
   -64.9598 -64.9587 -64.9573 -64.9571 -64.9531 -64.9511 -64.9510 -64.9226
   -64.9213 -64.9211 -64.9185 -64.9183 -64.9175 -64.9175 -64.9172 -64.9169
   -12.7447 -10.0033 -10.0004  -6.4042  -6.3967  -4.4228  -3.4436  -2.8405
    -2.8198  -2.6376  -2.6373  -2.4980  -2.0687  -2.0664  -1.9461  -1.8902
    -1.8719  -1.2226  -1.2065  -0.8845  -0.6400  -0.6265  -0.6194  -0.2772
    -0.2761  -0.2377  -0.2104  -0.0354  -0.0353  -0.0258   0.0380   0.0782
     0.1388   0.1401   0.1592   0.1595   0.1759   0.2254   0.2370   0.2371
     0.2548   0.3535   0.3564   0.3592   0.3595   0.4293   0.4369   0.4965
     0.4981   0.5093   0.5205   0.5488   0.5490   0.5513   0.5694   0.5709
     0.6338   0.6346   0.6639   0.6643   0.6946   0.6946   0.7215   0.7297
     0.7303   0.7950   0.7953   0.8242   0.8449   0.8583   0.8587   0.9303
     0.9339   0.9845   1.0040   1.0046   1.0306   1.0311   1.0903   1.0988
     1.1000   1.1157   1.1160   1.1275   1.1677   1.1941   1.1948   1.2380
     1.2386   1.2636   1.2670   1.2690   1.2710   1.2882   1.2884   1.3447
     1.3461   1.3496   1.3506   1.3551   1.3657   1.3842   1.3856   1.3966
     1.3984   1.4243   1.4269   1.4472   1.4487   1.4503   1.4690   1.4960
     1.5359   1.5418   1.5433   1.5444   1.5455   1.5733   1.5895   1.5944
     1.5971   1.6327   1.6346   1.6359   1.6383   1.6454   1.6683   1.6883
     1.6894   1.7036   1.7037   1.7177   1.7304   1.7428   1.7440   1.7484
     1.7499   1.7675   1.7697   1.7859   1.7864   1.8024   1.8098   1.8153
     1.8301   1.8332   1.8555   1.8602   1.8692   1.8715   1.8796   1.8856
     1.8880   1.8927   1.9013   1.9017   1.9127   1.9156   1.9165   1.9182
     1.9403   1.9482   1.9555   1.9680   1.9770   1.9867   1.9931   1.9949
     2.0064   2.0071   2.0082   2.0122   2.0123   2.0163   2.0184   2.0223
     2.0404   2.0577   2.0916   2.0978   2.1500   2.1503   2.1520   2.1574
     2.1621   2.1670   2.1847   2.1850   2.2086   2.2200   2.2221   2.2302
     2.2507   2.2515   2.2884   2.2915   2.2928   2.3215   2.3226   2.3241
     2.3245   2.3263   2.3281   2.3299   2.3341   2.3427   2.3612   2.3617
     2.4061   2.4101   2.4114   2.4127   2.4190   2.4240   2.4319   2.4552
     2.4602   2.4642   2.4779   2.4999   2.5010   2.5208   2.5278   2.5285
     2.5398   2.5434   2.5730   2.5809   2.5853   2.5884   2.6139   2.6157
     2.6365   2.6416   2.6421   2.6606   2.6632   2.6835   2.6856   2.6874
     2.6895   2.6940   2.7039   2.7047   2.7100   2.7170   2.7251   2.7429
     2.7760   2.7795   2.7805   2.7869   2.8312   2.8318   2.8440   2.8483
     2.8758   2.8875   2.8890   2.8951   2.8958   2.9062   2.9109   2.9392
     2.9410   2.9412   2.9497   2.9504   2.9599   2.9627   2.9643   2.9652
     2.9686   2.9731   2.9738   2.9751   2.9782   2.9915   2.9930   3.0064
     3.0073   3.0181   3.0182   3.0194   3.0303   3.0457   3.0510   3.0576
     3.0584   3.0751   3.1028   3.1035   3.1172   3.1378   3.1386   3.2962
     3.3057   3.4064   3.4066   3.5063   3.5073   3.6195   3.8300   3.8354
     4.2144   4.2358   4.3157   4.3166   4.3308   4.5913   4.6953   4.7100
     4.7227   4.7232   4.8693   5.1660   5.1938   5.1953   5.6428   5.6783
     5.7069   5.7823   5.9331   5.9456   5.9470   6.0784   6.0905   6.1674
     6.2465   6.6114   6.6843   6.6900   6.8582   6.9658   6.9949   7.0677
     7.0708   7.2248   7.2622   7.3939   7.6153   7.7609   7.9104   7.9595
     8.4616   8.5000   8.5008   8.6036   8.7416   8.9852   9.1401   9.1630
     9.2187   9.3184   9.3379   9.4771   9.4955   9.6404   9.6808   9.7165
     9.8028   9.9183  10.0133  10.1203  10.1720  10.3621  10.4253  10.4570
    10.5164  10.6148  10.7236  10.8258  10.8718  11.0623  11.0797  11.1866
    11.2327  11.2552  11.4626  11.4931  11.5033  11.5975  11.6149  11.7078
    11.7256  11.8264  11.8685  11.8814  11.9954  12.0975  12.1305  12.1697
    12.2859  12.3790  12.4301  12.4485  12.5215  12.5665  12.6045  12.6342
    12.7126  12.7556  12.8301  12.8618  12.9426  13.0166  13.1578  13.2153
    13.2924  13.3155  13.3794  13.4280  13.4866  13.5351  13.5509  13.6410
    13.6808  13.6930

          k =-0.2500 0.1443 0.0000 ( 61417 PWs)   bands (ev):

  -107.8121-107.8093-107.8068-107.8059-107.8053-107.8045-107.8038-107.8035
  -107.8029-107.8022-107.8021-107.8014-107.8014-107.8011-107.8008-107.8001
  -107.8001-107.7998-107.7972-107.7963-107.7959-107.7946-107.7945-107.7938
  -107.7928-107.7924-107.7923-107.7904-107.7878-107.7866-107.7865-107.7854
  -107.7852-107.7845-107.7839-107.7827-107.5849-107.5822-107.5813-107.5807
  -107.5795-107.5794-107.5762-107.5741-107.5740-107.5514-107.5485-107.5474
  -107.5473-107.5459-107.5459-107.5454-107.5444-107.5444 -65.2647 -65.2558
   -65.2550 -65.2539 -65.2530 -65.2527 -65.2521 -65.2517 -65.2491 -65.2489
   -65.2479 -65.2478 -65.2463 -65.2461 -65.2416 -65.2405 -65.2402 -65.2384
   -65.2376 -65.2367 -65.2363 -65.2362 -65.2360 -65.2356 -65.2339 -65.2338
   -65.2333 -65.2327 -65.2290 -65.2289 -65.2263 -65.2258 -65.2258 -65.2247
   -65.2245 -65.2237 -65.2232 -65.2229 -65.2210 -65.2209 -65.2187 -65.2186
   -65.2158 -65.2153 -65.2150 -65.2147 -65.2139 -65.2138 -65.2128 -65.2120
   -65.2114 -65.2106 -65.2099 -65.2092 -65.2089 -65.2084 -65.2077 -65.2072
   -65.2068 -65.2055 -65.2050 -65.2049 -65.2046 -65.2045 -65.2043 -65.2021
   -65.2018 -65.2000 -65.1998 -65.1991 -65.1989 -65.1978 -65.1975 -65.1973
   -65.1968 -65.1964 -65.1963 -65.1958 -65.1956 -65.1955 -65.1954 -65.1941
   -65.1939 -65.1925 -65.1922 -65.1913 -65.1908 -65.1904 -65.1902 -65.1899
   -65.1897 -65.1895 -65.1880 -65.1865 -65.1864 -65.1845 -65.1833 -65.1832
   -65.1832 -65.1821 -65.1817 -65.1796 -65.1795 -65.1788 -65.1763 -65.1756
   -65.1725 -65.1694 -65.0475 -65.0425 -65.0420 -65.0399 -65.0393 -65.0286
   -65.0282 -65.0229 -65.0225 -65.0191 -65.0176 -65.0120 -65.0119 -65.0109
   -65.0107 -65.0054 -65.0041 -65.0029 -64.9999 -64.9996 -64.9989 -64.9988
   -64.9959 -64.9932 -64.9930 -64.9916 -64.9902 -64.9885 -64.9748 -64.9747
   -64.9737 -64.9707 -64.9706 -64.9666 -64.9628 -64.9627 -64.9601 -64.9596
   -64.9595 -64.9588 -64.9573 -64.9572 -64.9531 -64.9511 -64.9510 -64.9234
   -64.9206 -64.9196 -64.9196 -64.9182 -64.9182 -64.9178 -64.9168 -64.9168
   -12.7455 -10.0010  -9.9984  -6.4053  -6.3970  -4.4498  -3.8636  -3.2494
    -2.8478  -2.4944  -2.3121  -2.2608  -1.8873  -1.8451  -1.7127  -1.5498
    -1.5492  -1.2160  -1.0690  -1.0662  -0.9225  -0.6746  -0.4932  -0.4928
    -0.4047  -0.3986  -0.3061  -0.2818  -0.2078  -0.2071  -0.0723  -0.0410
    -0.0343   0.0577   0.0643   0.0654   0.0680   0.0998   0.2412   0.2476
     0.2731   0.3388   0.3390   0.5214   0.5282   0.5591   0.5591   0.5823
     0.5952   0.5952   0.6175   0.6180   0.6627   0.6659   0.6673   0.6683
     0.6798   0.6801   0.7209   0.7210   0.7570   0.7570   0.7862   0.7863
     0.7916   0.8372   0.8381   0.8522   0.8522   0.8736   0.8740   0.8864
     0.8865   0.9178   0.9182   0.9617   1.0297   1.0297   1.0338   1.0595
     1.0596   1.0725   1.0734   1.1075   1.1078   1.1442   1.1465   1.1465
     1.2110   1.2111   1.2319   1.2357   1.2565   1.2568   1.3016   1.3023
     1.3176   1.3388   1.3422   1.3436   1.3709   1.4144   1.4153   1.4320
     1.4325   1.4412   1.4720   1.4777   1.4908   1.5127   1.5131   1.5218
     1.5514   1.5519   1.5798   1.6170   1.6334   1.6424   1.6424   1.6531
     1.6544   1.6560   1.6844   1.6929   1.7005   1.7116   1.7118   1.7277
     1.7299   1.7308   1.7500   1.7541   1.7590   1.7720   1.7833   1.7839
     1.7861   1.7949   1.7953   1.8034   1.8069   1.8224   1.8244   1.8284
     1.8285   1.8323   1.8508   1.8573   1.8616   1.8624   1.8759   1.8840
     1.8883   1.8895   1.8908   1.9234   1.9253   1.9298   1.9311   1.9465
     1.9488   1.9514   1.9654   1.9717   1.9720   1.9742   1.9852   1.9935
     2.0033   2.0175   2.0436   2.0446   2.0581   2.0584   2.0694   2.0699
     2.0709   2.0839   2.0872   2.1125   2.1127   2.1248   2.1262   2.1522
     2.1647   2.1720   2.1987   2.2053   2.2105   2.2108   2.2289   2.2294
     2.2721   2.2895   2.3152   2.3167   2.3233   2.3247   2.3369   2.3377
     2.3660   2.3684   2.3786   2.3793   2.3830   2.3853   2.4148   2.4153
     2.4465   2.4514   2.4556   2.4565   2.4641   2.4894   2.4926   2.4954
     2.4971   2.5008   2.5304   2.5416   2.5458   2.5512   2.5521   2.5689
     2.5734   2.5738   2.5913   2.5941   2.5949   2.5950   2.6051   2.6088
     2.6301   2.6391   2.6796   2.6847   2.6887   2.7162   2.7180   2.7271
     2.7299   2.7307   2.7314   2.7352   2.7532   2.7539   2.7550   2.7679
     2.7718   2.7722   2.7764   2.7867   2.8106   2.8226   2.8227   2.8259
     2.8360   2.8369   2.8554   2.8571   2.8639   2.8655   2.9110   2.9111
     2.9113   2.9172   2.9172   2.9244   2.9338   2.9351   2.9399   2.9441
     2.9458   2.9459   2.9521   2.9523   2.9561   2.9614   2.9695   2.9704
     2.9882   3.0000   3.0001   3.0009   3.0029   3.0074   3.0088   3.0091
     3.0313   3.0398   3.0501   3.0522   3.0542   3.0567   3.0698   3.0709
     3.1354   3.1608   3.2056   3.2917   3.3165   3.3168   3.3976   3.4769
     3.4771   3.7302   3.7796   3.7826   3.7871   3.8085   4.0941   4.3027
     4.4808   4.7545   4.7573   4.9782   5.0635   5.0756   5.1070   5.8443
     5.8447   6.0621   6.1952   6.2200   6.2410   6.2417   6.4804   6.7123
     6.7855   6.9013   6.9217   7.2008   7.2442   7.3757   7.4821   7.7416
     7.7746   7.7865   7.9598   8.0341   8.2342   8.2446   8.2806   8.3990
     8.4027   8.7108   8.7137   8.7570   8.8553   8.9490   9.2602   9.2632
     9.3173   9.4170   9.5715   9.6556   9.7830   9.8288   9.9174   9.9543
    10.0029  10.0112  10.0543  10.1318  10.2606  10.4096  10.4140  10.4563
    10.5241  10.5553  10.6120  10.6599  10.7234  10.7747  10.7799  10.8625
    10.9490  10.9548  10.9712  11.0232  11.0966  11.2426  11.4435  11.4573
    11.4953  11.5191  11.5862  11.5882  11.6899  11.7713  11.9286  11.9593
    12.0449  12.1710  12.2308  12.3129  12.3480  12.4193  12.4779  12.5004
    12.5417  12.5824  12.6469  12.6965  12.8263  12.8365  12.8591  12.8769
    12.9577  13.0238  13.1241  13.1412  13.1934  13.2376  13.2558  13.3708
    13.3947  13.4493

          k = 0.2500 0.1443 0.0000 ( 61417 PWs)   bands (ev):

  -107.8121-107.8093-107.8068-107.8059-107.8053-107.8045-107.8038-107.8035
  -107.8029-107.8022-107.8021-107.8014-107.8014-107.8011-107.8008-107.8001
  -107.8001-107.7998-107.7972-107.7963-107.7959-107.7946-107.7945-107.7938
  -107.7928-107.7924-107.7923-107.7904-107.7878-107.7866-107.7865-107.7854
  -107.7852-107.7845-107.7839-107.7827-107.5849-107.5822-107.5813-107.5807
  -107.5795-107.5794-107.5762-107.5741-107.5740-107.5514-107.5485-107.5474
  -107.5473-107.5459-107.5459-107.5454-107.5444-107.5444 -65.2647 -65.2558
   -65.2550 -65.2539 -65.2530 -65.2527 -65.2521 -65.2517 -65.2491 -65.2489
   -65.2479 -65.2478 -65.2463 -65.2461 -65.2416 -65.2405 -65.2402 -65.2384
   -65.2376 -65.2367 -65.2363 -65.2362 -65.2360 -65.2356 -65.2339 -65.2338
   -65.2333 -65.2327 -65.2290 -65.2289 -65.2263 -65.2258 -65.2258 -65.2247
   -65.2245 -65.2237 -65.2232 -65.2229 -65.2210 -65.2209 -65.2187 -65.2186
   -65.2158 -65.2153 -65.2150 -65.2147 -65.2139 -65.2138 -65.2128 -65.2120
   -65.2114 -65.2106 -65.2099 -65.2092 -65.2089 -65.2084 -65.2077 -65.2072
   -65.2068 -65.2055 -65.2050 -65.2049 -65.2046 -65.2045 -65.2043 -65.2021
   -65.2018 -65.2000 -65.1998 -65.1991 -65.1989 -65.1978 -65.1975 -65.1973
   -65.1968 -65.1964 -65.1963 -65.1958 -65.1956 -65.1955 -65.1954 -65.1941
   -65.1939 -65.1925 -65.1922 -65.1913 -65.1908 -65.1904 -65.1902 -65.1899
   -65.1897 -65.1895 -65.1880 -65.1865 -65.1864 -65.1845 -65.1833 -65.1832
   -65.1832 -65.1821 -65.1817 -65.1796 -65.1795 -65.1788 -65.1763 -65.1756
   -65.1725 -65.1694 -65.0475 -65.0425 -65.0420 -65.0399 -65.0393 -65.0286
   -65.0282 -65.0229 -65.0225 -65.0191 -65.0176 -65.0120 -65.0119 -65.0109
   -65.0107 -65.0054 -65.0041 -65.0029 -64.9999 -64.9996 -64.9989 -64.9988
   -64.9959 -64.9932 -64.9930 -64.9916 -64.9902 -64.9885 -64.9748 -64.9747
   -64.9737 -64.9707 -64.9706 -64.9666 -64.9628 -64.9627 -64.9601 -64.9596
   -64.9595 -64.9588 -64.9573 -64.9572 -64.9531 -64.9511 -64.9510 -64.9234
   -64.9206 -64.9196 -64.9196 -64.9182 -64.9182 -64.9178 -64.9168 -64.9168
   -12.7455 -10.0011  -9.9984  -6.4052  -6.3971  -4.4498  -3.8636  -3.2494
    -2.8478  -2.4944  -2.3121  -2.2608  -1.8874  -1.8450  -1.7127  -1.5498
    -1.5492  -1.2160  -1.0690  -1.0662  -0.9225  -0.6746  -0.4932  -0.4928
    -0.4047  -0.3986  -0.3061  -0.2818  -0.2078  -0.2071  -0.0723  -0.0410
    -0.0343   0.0576   0.0643   0.0654   0.0680   0.0999   0.2413   0.2476
     0.2731   0.3388   0.3390   0.5214   0.5282   0.5591   0.5591   0.5823
     0.5952   0.5952   0.6175   0.6180   0.6627   0.6659   0.6673   0.6683
     0.6798   0.6801   0.7209   0.7210   0.7570   0.7570   0.7862   0.7863
     0.7916   0.8372   0.8381   0.8522   0.8522   0.8736   0.8740   0.8864
     0.8865   0.9178   0.9182   0.9617   1.0297   1.0297   1.0338   1.0595
     1.0596   1.0725   1.0734   1.1075   1.1078   1.1442   1.1465   1.1465
     1.2110   1.2111   1.2319   1.2357   1.2565   1.2568   1.3016   1.3023
     1.3176   1.3388   1.3422   1.3436   1.3709   1.4144   1.4153   1.4320
     1.4325   1.4412   1.4720   1.4777   1.4908   1.5127   1.5131   1.5218
     1.5514   1.5519   1.5798   1.6170   1.6334   1.6424   1.6424   1.6531
     1.6544   1.6560   1.6844   1.6929   1.7005   1.7116   1.7118   1.7277
     1.7299   1.7308   1.7500   1.7541   1.7590   1.7720   1.7833   1.7839
     1.7861   1.7949   1.7953   1.8034   1.8069   1.8224   1.8244   1.8284
     1.8285   1.8323   1.8508   1.8573   1.8616   1.8624   1.8759   1.8840
     1.8883   1.8895   1.8908   1.9234   1.9253   1.9298   1.9311   1.9465
     1.9488   1.9514   1.9654   1.9717   1.9720   1.9742   1.9852   1.9935
     2.0033   2.0175   2.0436   2.0446   2.0581   2.0584   2.0694   2.0699
     2.0709   2.0839   2.0872   2.1125   2.1127   2.1248   2.1261   2.1522
     2.1647   2.1720   2.1987   2.2053   2.2105   2.2108   2.2289   2.2294
     2.2721   2.2895   2.3152   2.3167   2.3233   2.3247   2.3369   2.3377
     2.3660   2.3684   2.3786   2.3792   2.3830   2.3853   2.4148   2.4153
     2.4465   2.4514   2.4556   2.4565   2.4641   2.4894   2.4926   2.4954
     2.4971   2.5008   2.5304   2.5416   2.5458   2.5512   2.5521   2.5689
     2.5734   2.5738   2.5913   2.5941   2.5949   2.5950   2.6051   2.6088
     2.6301   2.6391   2.6796   2.6847   2.6887   2.7162   2.7180   2.7271
     2.7299   2.7307   2.7314   2.7352   2.7532   2.7539   2.7550   2.7679
     2.7718   2.7722   2.7764   2.7867   2.8106   2.8226   2.8227   2.8259
     2.8360   2.8369   2.8554   2.8571   2.8639   2.8655   2.9110   2.9111
     2.9113   2.9172   2.9172   2.9244   2.9338   2.9351   2.9399   2.9441
     2.9458   2.9459   2.9521   2.9523   2.9561   2.9614   2.9695   2.9704
     2.9882   3.0000   3.0001   3.0009   3.0029   3.0074   3.0088   3.0091
     3.0313   3.0398   3.0501   3.0522   3.0542   3.0567   3.0698   3.0709
     3.1354   3.1608   3.2056   3.2917   3.3165   3.3168   3.3976   3.4769
     3.4771   3.7302   3.7796   3.7826   3.7871   3.8085   4.0941   4.3027
     4.4808   4.7545   4.7573   4.9782   5.0635   5.0756   5.1070   5.8443
     5.8447   6.0621   6.1952   6.2200   6.2410   6.2417   6.4804   6.7123
     6.7855   6.9013   6.9217   7.2008   7.2442   7.3757   7.4821   7.7416
     7.7746   7.7865   7.9598   8.0341   8.2342   8.2446   8.2806   8.3990
     8.4027   8.7108   8.7137   8.7570   8.8553   8.9490   9.2602   9.2632
     9.3173   9.4170   9.5715   9.6556   9.7830   9.8288   9.9174   9.9543
    10.0029  10.0112  10.0543  10.1318  10.2606  10.4096  10.4140  10.4563
    10.5241  10.5553  10.6120  10.6599  10.7234  10.7747  10.7799  10.8625
    10.9490  10.9548  10.9712  11.0232  11.0966  11.2426  11.4435  11.4573
    11.4953  11.5191  11.5862  11.5882  11.6899  11.7713  11.9286  11.9592
    12.0449  12.1710  12.2308  12.3129  12.3480  12.4193  12.4779  12.5004
    12.5417  12.5824  12.6469  12.6965  12.8263  12.8365  12.8591  12.8769
    12.9577  13.0238  13.1241  13.1412  13.1934  13.2376  13.2558  13.3708
    13.3947  13.4493

          k = 0.5000-0.2887 0.0000 ( 61408 PWs)   bands (ev):

  -107.8116-107.8093-107.8078-107.8062-107.8053-107.8042-107.8035-107.8030
  -107.8027-107.8024-107.8020-107.8020-107.8018-107.8012-107.8005-107.8002
  -107.7998-107.7991-107.7983-107.7965-107.7961-107.7942-107.7942-107.7937
  -107.7928-107.7925-107.7923-107.7897-107.7888-107.7869-107.7867-107.7851
  -107.7844-107.7844-107.7843-107.7827-107.5843-107.5831-107.5814-107.5807
  -107.5794-107.5792-107.5762-107.5742-107.5740-107.5503-107.5501-107.5476
  -107.5476-107.5452-107.5452-107.5450-107.5449-107.5448 -65.2612 -65.2603
   -65.2581 -65.2567 -65.2532 -65.2529 -65.2518 -65.2516 -65.2507 -65.2505
   -65.2500 -65.2498 -65.2495 -65.2489 -65.2456 -65.2396 -65.2389 -65.2388
   -65.2384 -65.2381 -65.2377 -65.2376 -65.2370 -65.2368 -65.2345 -65.2343
   -65.2338 -65.2333 -65.2272 -65.2267 -65.2260 -65.2257 -65.2252 -65.2246
   -65.2236 -65.2201 -65.2199 -65.2178 -65.2165 -65.2164 -65.2163 -65.2159
   -65.2156 -65.2145 -65.2134 -65.2134 -65.2128 -65.2120 -65.2120 -65.2115
   -65.2091 -65.2090 -65.2088 -65.2084 -65.2083 -65.2079 -65.2072 -65.2062
   -65.2039 -65.2032 -65.2029 -65.2024 -65.2023 -65.2018 -65.2017 -65.2016
   -65.2016 -65.2014 -65.2011 -65.2001 -65.1987 -65.1986 -65.1981 -65.1975
   -65.1974 -65.1970 -65.1955 -65.1950 -65.1945 -65.1943 -65.1942 -65.1937
   -65.1930 -65.1930 -65.1922 -65.1915 -65.1913 -65.1910 -65.1908 -65.1905
   -65.1905 -65.1898 -65.1897 -65.1872 -65.1870 -65.1868 -65.1866 -65.1858
   -65.1843 -65.1834 -65.1829 -65.1829 -65.1810 -65.1806 -65.1795 -65.1789
   -65.1724 -65.1717 -65.0516 -65.0448 -65.0444 -65.0425 -65.0418 -65.0250
   -65.0245 -65.0218 -65.0140 -65.0139 -65.0139 -65.0138 -65.0137 -65.0130
   -65.0117 -65.0111 -65.0053 -65.0041 -65.0036 -65.0007 -64.9990 -64.9953
   -64.9951 -64.9931 -64.9904 -64.9829 -64.9828 -64.9828 -64.9826 -64.9748
   -64.9745 -64.9743 -64.9717 -64.9716 -64.9627 -64.9625 -64.9622 -64.9607
   -64.9595 -64.9588 -64.9572 -64.9571 -64.9531 -64.9511 -64.9510 -64.9223
   -64.9221 -64.9198 -64.9198 -64.9176 -64.9175 -64.9174 -64.9172 -64.9172
   -12.7447 -10.0045  -9.9992  -6.4085  -6.3924  -4.4226  -3.2382  -3.2380
    -2.8201  -2.6424  -2.6412  -2.4982  -1.9417  -1.8528  -1.7435  -1.7247
    -1.7054  -1.7045  -1.1995  -1.1959  -0.8131  -0.6710  -0.5516  -0.4758
    -0.4495  -0.0925   0.0144   0.0877   0.0914   0.0966   0.1110   0.1113
     0.1115   0.1134   0.1138   0.1986   0.2679   0.2757   0.2794   0.2863
     0.2905   0.3094   0.3095   0.3096   0.3098   0.3646   0.3648   0.3652
     0.3652   0.4926   0.5286   0.5286   0.5297   0.5298   0.5651   0.6096
     0.7075   0.7076   0.7078   0.7079   0.7195   0.7421   0.7456   0.7594
     0.7594   0.7607   0.7608   0.8812   0.8813   0.8817   0.8818   0.9036
     0.9048   0.9902   1.0017   1.0019   1.0033   1.0034   1.0417   1.0418
     1.0855   1.0857   1.1531   1.1534   1.1548   1.1550   1.2165   1.2168
     1.2470   1.2481   1.2640   1.2645   1.2662   1.2668   1.2862   1.2863
     1.3141   1.3229   1.3703   1.3860   1.3873   1.4138   1.4150   1.4295
     1.4344   1.4428   1.4431   1.4439   1.4439   1.4985   1.5018   1.5033
     1.5039   1.5047   1.5051   1.5536   1.5601   1.5742   1.5782   1.5800
     1.5802   1.5881   1.5886   1.5886   1.6187   1.6456   1.6721   1.6770
     1.6778   1.6828   1.6926   1.7269   1.7279   1.7283   1.7285   1.7287
     1.7347   1.7430   1.7921   1.7930   1.7976   1.8004   1.8116   1.8123
     1.8439   1.8446   1.8467   1.8474   1.8601   1.8709   1.8718   1.8744
     1.8748   1.8919   1.8946   1.9008   1.9014   1.9307   1.9325   1.9479
     1.9552   1.9656   1.9662   1.9814   2.0250   2.0260   2.0335   2.0343
     2.0365   2.0368   2.0417   2.0445   2.0457   2.0545   2.0549   2.0624
     2.0710   2.0793   2.0815   2.0871   2.0871   2.0946   2.1010   2.1599
     2.1673   2.1679   2.1806   2.2485   2.2487   2.2493   2.2498   2.2514
     2.2538   2.2540   2.2637   2.2643   2.2674   2.2815   2.2909   2.3114
     2.3264   2.3274   2.3275   2.3350   2.3490   2.3493   2.3494   2.3502
     2.3507   2.3583   2.3745   2.3752   2.3791   2.3854   2.3859   2.4657
     2.4848   2.5054   2.5060   2.5331   2.5333   2.5341   2.5348   2.5652
     2.5655   2.5706   2.5840   2.6038   2.6056   2.6094   2.6102   2.6212
     2.6314   2.6465   2.6469   2.6474   2.6474   2.6497   2.6604   2.6792
     2.6801   2.6822   2.6867   2.7353   2.7354   2.7369   2.7374   2.7481
     2.7490   2.7713   2.7723   2.8003   2.8011   2.8081   2.8101   2.8341
     2.8342   2.8572   2.8611   2.8674   2.8811   2.9195   2.9213   2.9358
     2.9381   2.9415   2.9424   2.9598   2.9715   2.9716   2.9749   2.9754
     2.9775   2.9795   2.9965   2.9999   3.0001   3.0002   3.0007   3.0173
     3.0180   3.0187   3.0308   3.0326   3.0482   3.0483   3.0648   3.0649
     3.0656   3.0687   3.0741   3.0886   3.1043   3.1169   3.1172   3.1185
     3.1187   3.2138   3.2403   3.7499   3.7757   3.7803   3.7907   4.2819
     4.3286   4.3289   4.3292   4.3293   4.5962   4.5975   4.5986   4.5990
     4.9359   4.9485   4.9755   5.0747   5.1216   5.1459   5.1544   5.1566
     5.1621   5.4399   5.7780   6.0333   6.0536   6.0857   6.1025   6.1339
     6.1375   6.1517   6.1961   6.5839   6.6609   7.1159   7.2127   7.4442
     7.4459   7.4485   7.6332   7.9054   7.9795   8.1907   8.3089   8.4239
     8.5685   8.5746   8.5748   8.6029   8.9044   8.9411   8.9521   9.1978
     9.2197   9.2225   9.2359   9.2492   9.4557   9.6126   9.6407   9.7761
     9.8168   9.8884   9.8967   9.9183   9.9237  10.2826  10.3070  10.3749
    10.4177  10.4384  10.5105  10.5221  10.5459  10.8088  10.8551  11.0230
    11.0631  11.1577  11.2617  11.2809  11.3625  11.3719  11.4582  11.4891
    11.5106  11.5940  11.7220  12.0342  12.1281  12.1375  12.2514  12.2830
    12.2918  12.3219  12.4308  12.5499  12.7472  12.7803  12.8972  12.9603
    12.9905  13.0402  13.0531  13.1239  13.1291  13.2165  13.2398  13.2550
    13.2756  13.2990  13.3012  13.3538  13.5201  13.6235  13.7019  13.7021
    13.7663  13.8526

          k =-0.5000-0.2887 0.0000 ( 61408 PWs)   bands (ev):

  -107.8116-107.8093-107.8078-107.8062-107.8053-107.8042-107.8035-107.8030
  -107.8027-107.8024-107.8020-107.8020-107.8018-107.8012-107.8005-107.8002
  -107.7998-107.7991-107.7983-107.7965-107.7961-107.7942-107.7942-107.7937
  -107.7928-107.7925-107.7923-107.7897-107.7888-107.7869-107.7867-107.7851
  -107.7844-107.7844-107.7843-107.7827-107.5843-107.5831-107.5814-107.5807
  -107.5794-107.5792-107.5762-107.5742-107.5740-107.5503-107.5501-107.5476
  -107.5476-107.5452-107.5452-107.5450-107.5449-107.5448 -65.2612 -65.2603
   -65.2581 -65.2567 -65.2532 -65.2529 -65.2518 -65.2516 -65.2507 -65.2505
   -65.2500 -65.2498 -65.2495 -65.2489 -65.2456 -65.2396 -65.2389 -65.2388
   -65.2384 -65.2381 -65.2377 -65.2376 -65.2370 -65.2368 -65.2345 -65.2343
   -65.2338 -65.2333 -65.2272 -65.2267 -65.2260 -65.2257 -65.2252 -65.2246
   -65.2236 -65.2201 -65.2199 -65.2178 -65.2165 -65.2164 -65.2163 -65.2159
   -65.2156 -65.2145 -65.2134 -65.2134 -65.2128 -65.2120 -65.2120 -65.2115
   -65.2091 -65.2090 -65.2088 -65.2084 -65.2083 -65.2079 -65.2072 -65.2062
   -65.2039 -65.2032 -65.2029 -65.2024 -65.2023 -65.2018 -65.2017 -65.2016
   -65.2016 -65.2014 -65.2011 -65.2001 -65.1987 -65.1986 -65.1981 -65.1975
   -65.1974 -65.1970 -65.1955 -65.1950 -65.1945 -65.1943 -65.1942 -65.1937
   -65.1930 -65.1930 -65.1922 -65.1915 -65.1913 -65.1910 -65.1908 -65.1905
   -65.1905 -65.1898 -65.1897 -65.1872 -65.1870 -65.1868 -65.1866 -65.1858
   -65.1843 -65.1834 -65.1829 -65.1829 -65.1810 -65.1806 -65.1795 -65.1789
   -65.1724 -65.1717 -65.0516 -65.0448 -65.0444 -65.0425 -65.0418 -65.0250
   -65.0245 -65.0218 -65.0140 -65.0139 -65.0139 -65.0138 -65.0137 -65.0130
   -65.0117 -65.0111 -65.0053 -65.0041 -65.0036 -65.0007 -64.9990 -64.9953
   -64.9951 -64.9931 -64.9904 -64.9829 -64.9828 -64.9828 -64.9826 -64.9748
   -64.9745 -64.9743 -64.9717 -64.9716 -64.9627 -64.9625 -64.9622 -64.9607
   -64.9595 -64.9588 -64.9572 -64.9571 -64.9531 -64.9511 -64.9510 -64.9223
   -64.9221 -64.9198 -64.9198 -64.9176 -64.9175 -64.9174 -64.9172 -64.9172
   -12.7447 -10.0046  -9.9991  -6.4085  -6.3925  -4.4226  -3.2382  -3.2380
    -2.8201  -2.6424  -2.6412  -2.4982  -1.9418  -1.8527  -1.7435  -1.7247
    -1.7054  -1.7045  -1.1995  -1.1959  -0.8131  -0.6710  -0.5516  -0.4758
    -0.4495  -0.0925   0.0143   0.0877   0.0914   0.0967   0.1110   0.1113
     0.1115   0.1134   0.1138   0.1986   0.2679   0.2757   0.2794   0.2863
     0.2905   0.3094   0.3095   0.3096   0.3098   0.3646   0.3648   0.3652
     0.3652   0.4926   0.5286   0.5286   0.5297   0.5298   0.5651   0.6096
     0.7075   0.7076   0.7078   0.7079   0.7195   0.7421   0.7456   0.7594
     0.7594   0.7607   0.7608   0.8812   0.8813   0.8817   0.8818   0.9036
     0.9048   0.9902   1.0017   1.0019   1.0033   1.0034   1.0417   1.0418
     1.0855   1.0857   1.1531   1.1534   1.1548   1.1550   1.2165   1.2168
     1.2470   1.2481   1.2640   1.2645   1.2662   1.2668   1.2862   1.2863
     1.3141   1.3229   1.3703   1.3860   1.3873   1.4138   1.4150   1.4295
     1.4344   1.4428   1.4431   1.4439   1.4439   1.4985   1.5018   1.5033
     1.5039   1.5047   1.5051   1.5536   1.5601   1.5743   1.5782   1.5800
     1.5802   1.5881   1.5886   1.5886   1.6187   1.6456   1.6721   1.6770
     1.6778   1.6828   1.6926   1.7269   1.7279   1.7283   1.7285   1.7287
     1.7347   1.7430   1.7921   1.7930   1.7976   1.8004   1.8116   1.8123
     1.8439   1.8446   1.8467   1.8474   1.8601   1.8709   1.8718   1.8744
     1.8748   1.8919   1.8946   1.9008   1.9014   1.9307   1.9325   1.9479
     1.9552   1.9656   1.9662   1.9814   2.0250   2.0260   2.0335   2.0343
     2.0365   2.0368   2.0417   2.0445   2.0457   2.0545   2.0549   2.0624
     2.0710   2.0793   2.0815   2.0871   2.0871   2.0946   2.1010   2.1599
     2.1673   2.1679   2.1806   2.2485   2.2487   2.2493   2.2498   2.2514
     2.2538   2.2540   2.2637   2.2643   2.2674   2.2815   2.2909   2.3114
     2.3264   2.3274   2.3275   2.3350   2.3490   2.3493   2.3494   2.3502
     2.3507   2.3583   2.3745   2.3752   2.3791   2.3854   2.3859   2.4657
     2.4848   2.5054   2.5060   2.5331   2.5333   2.5341   2.5348   2.5652
     2.5655   2.5706   2.5840   2.6038   2.6056   2.6094   2.6102   2.6212
     2.6314   2.6465   2.6469   2.6474   2.6474   2.6497   2.6604   2.6792
     2.6801   2.6822   2.6867   2.7353   2.7354   2.7369   2.7374   2.7481
     2.7490   2.7713   2.7723   2.8003   2.8011   2.8081   2.8101   2.8341
     2.8342   2.8572   2.8611   2.8674   2.8811   2.9195   2.9213   2.9358
     2.9381   2.9415   2.9424   2.9598   2.9715   2.9716   2.9749   2.9754
     2.9775   2.9795   2.9965   2.9999   3.0001   3.0002   3.0007   3.0173
     3.0180   3.0187   3.0308   3.0326   3.0482   3.0483   3.0648   3.0649
     3.0656   3.0687   3.0741   3.0886   3.1043   3.1169   3.1172   3.1185
     3.1187   3.2138   3.2403   3.7499   3.7757   3.7803   3.7907   4.2819
     4.3286   4.3289   4.3292   4.3293   4.5962   4.5975   4.5986   4.5990
     4.9359   4.9485   4.9755   5.0747   5.1216   5.1459   5.1544   5.1566
     5.1621   5.4399   5.7780   6.0333   6.0536   6.0857   6.1025   6.1339
     6.1375   6.1517   6.1961   6.5839   6.6609   7.1159   7.2127   7.4442
     7.4459   7.4485   7.6332   7.9054   7.9795   8.1907   8.3089   8.4239
     8.5685   8.5746   8.5748   8.6029   8.9044   8.9411   8.9521   9.1978
     9.2197   9.2225   9.2359   9.2492   9.4557   9.6126   9.6407   9.7761
     9.8168   9.8884   9.8967   9.9183   9.9237  10.2826  10.3070  10.3749
    10.4177  10.4384  10.5104  10.5221  10.5459  10.8088  10.8551  11.0230
    11.0631  11.1577  11.2617  11.2809  11.3625  11.3719  11.4582  11.4891
    11.5106  11.5940  11.7220  12.0342  12.1281  12.1374  12.2514  12.2830
    12.2918  12.3219  12.4307  12.5499  12.7472  12.7804  12.8972  12.9603
    12.9905  13.0402  13.0531  13.1239  13.1291  13.2165  13.2398  13.2550
    13.2756  13.2990  13.3012  13.3538  13.5201  13.6235  13.7019  13.7021
    13.7663  13.8526

          k =-0.2500-0.7217 0.0000 ( 61343 PWs)   bands (ev):

  -107.8116-107.8092-107.8077-107.8069-107.8043-107.8041-107.8039-107.8031
  -107.8030-107.8024-107.8020-107.8019-107.8016-107.8009-107.8007-107.8002
  -107.7998-107.7992-107.7979-107.7973-107.7955-107.7944-107.7942-107.7938
  -107.7928-107.7925-107.7923-107.7898-107.7884-107.7877-107.7860-107.7852
  -107.7848-107.7843-107.7841-107.7827-107.5843-107.5830-107.5818-107.5804
  -107.5794-107.5792-107.5762-107.5742-107.5740-107.5506-107.5491-107.5490
  -107.5462-107.5460-107.5452-107.5451-107.5448-107.5446 -65.2621 -65.2578
   -65.2569 -65.2563 -65.2556 -65.2550 -65.2545 -65.2531 -65.2516 -65.2499
   -65.2495 -65.2485 -65.2458 -65.2443 -65.2436 -65.2432 -65.2431 -65.2407
   -65.2386 -65.2371 -65.2370 -65.2368 -65.2364 -65.2351 -65.2347 -65.2340
   -65.2331 -65.2327 -65.2303 -65.2296 -65.2258 -65.2246 -65.2243 -65.2234
   -65.2211 -65.2208 -65.2202 -65.2198 -65.2194 -65.2171 -65.2162 -65.2159
   -65.2152 -65.2144 -65.2139 -65.2134 -65.2124 -65.2103 -65.2099 -65.2096
   -65.2094 -65.2092 -65.2090 -65.2080 -65.2076 -65.2072 -65.2065 -65.2059
   -65.2054 -65.2042 -65.2039 -65.2037 -65.2035 -65.2030 -65.2015 -65.2005
   -65.2003 -65.2000 -65.1996 -65.1994 -65.1986 -65.1986 -65.1981 -65.1978
   -65.1976 -65.1968 -65.1964 -65.1957 -65.1953 -65.1948 -65.1945 -65.1935
   -65.1927 -65.1925 -65.1923 -65.1921 -65.1919 -65.1918 -65.1916 -65.1914
   -65.1898 -65.1892 -65.1889 -65.1873 -65.1868 -65.1863 -65.1860 -65.1859
   -65.1852 -65.1850 -65.1830 -65.1820 -65.1818 -65.1809 -65.1774 -65.1754
   -65.1753 -65.1716 -65.0499 -65.0485 -65.0462 -65.0395 -65.0363 -65.0346
   -65.0195 -65.0194 -65.0167 -65.0167 -65.0151 -65.0132 -65.0125 -65.0101
   -65.0089 -65.0069 -65.0063 -65.0062 -65.0060 -65.0054 -64.9997 -64.9955
   -64.9945 -64.9906 -64.9866 -64.9846 -64.9837 -64.9837 -64.9780 -64.9779
   -64.9771 -64.9770 -64.9705 -64.9660 -64.9659 -64.9622 -64.9619 -64.9605
   -64.9598 -64.9587 -64.9573 -64.9571 -64.9531 -64.9511 -64.9510 -64.9226
   -64.9213 -64.9211 -64.9185 -64.9183 -64.9175 -64.9175 -64.9172 -64.9169
   -12.7447 -10.0033 -10.0004  -6.4043  -6.3966  -4.4228  -3.4436  -2.8405
    -2.8198  -2.6376  -2.6373  -2.4980  -2.0687  -2.0664  -1.9460  -1.8902
    -1.8720  -1.2226  -1.2065  -0.8845  -0.6400  -0.6265  -0.6194  -0.2772
    -0.2761  -0.2377  -0.2104  -0.0354  -0.0353  -0.0258   0.0381   0.0781
     0.1388   0.1401   0.1592   0.1595   0.1759   0.2254   0.2370   0.2371
     0.2548   0.3535   0.3564   0.3592   0.3595   0.4293   0.4369   0.4965
     0.4981   0.5093   0.5205   0.5488   0.5490   0.5513   0.5694   0.5709
     0.6338   0.6346   0.6639   0.6643   0.6946   0.6946   0.7215   0.7297
     0.7303   0.7950   0.7953   0.8242   0.8449   0.8583   0.8587   0.9303
     0.9339   0.9845   1.0040   1.0046   1.0306   1.0311   1.0903   1.0988
     1.1000   1.1157   1.1160   1.1275   1.1677   1.1941   1.1948   1.2380
     1.2386   1.2636   1.2670   1.2690   1.2710   1.2882   1.2884   1.3447
     1.3461   1.3496   1.3506   1.3551   1.3657   1.3842   1.3856   1.3966
     1.3984   1.4243   1.4269   1.4472   1.4487   1.4503   1.4690   1.4960
     1.5359   1.5418   1.5433   1.5444   1.5455   1.5733   1.5895   1.5944
     1.5971   1.6327   1.6346   1.6359   1.6383   1.6454   1.6683   1.6883
     1.6894   1.7036   1.7037   1.7177   1.7304   1.7428   1.7440   1.7484
     1.7499   1.7675   1.7697   1.7859   1.7864   1.8024   1.8098   1.8153
     1.8302   1.8332   1.8555   1.8602   1.8692   1.8715   1.8796   1.8856
     1.8880   1.8927   1.9013   1.9017   1.9127   1.9156   1.9165   1.9182
     1.9403   1.9482   1.9555   1.9680   1.9770   1.9867   1.9931   1.9949
     2.0064   2.0071   2.0082   2.0122   2.0123   2.0163   2.0184   2.0223
     2.0404   2.0577   2.0916   2.0978   2.1500   2.1503   2.1520   2.1574
     2.1621   2.1670   2.1847   2.1850   2.2086   2.2200   2.2221   2.2302
     2.2507   2.2515   2.2884   2.2915   2.2928   2.3215   2.3226   2.3241
     2.3245   2.3263   2.3281   2.3299   2.3341   2.3427   2.3612   2.3617
     2.4061   2.4101   2.4114   2.4127   2.4190   2.4240   2.4319   2.4552
     2.4602   2.4642   2.4779   2.4999   2.5010   2.5208   2.5278   2.5285
     2.5398   2.5434   2.5730   2.5809   2.5853   2.5884   2.6139   2.6157
     2.6365   2.6416   2.6421   2.6606   2.6632   2.6835   2.6856   2.6874
     2.6895   2.6940   2.7039   2.7047   2.7100   2.7170   2.7251   2.7429
     2.7760   2.7795   2.7805   2.7869   2.8312   2.8318   2.8440   2.8483
     2.8758   2.8875   2.8890   2.8951   2.8958   2.9062   2.9109   2.9392
     2.9410   2.9412   2.9497   2.9504   2.9599   2.9627   2.9643   2.9652
     2.9686   2.9731   2.9738   2.9751   2.9782   2.9915   2.9930   3.0064
     3.0073   3.0181   3.0182   3.0194   3.0303   3.0457   3.0510   3.0576
     3.0584   3.0751   3.1028   3.1035   3.1172   3.1378   3.1386   3.2962
     3.3057   3.4064   3.4066   3.5063   3.5073   3.6195   3.8300   3.8354
     4.2144   4.2358   4.3157   4.3166   4.3308   4.5913   4.6953   4.7100
     4.7227   4.7232   4.8693   5.1660   5.1938   5.1953   5.6428   5.6783
     5.7069   5.7823   5.9331   5.9456   5.9470   6.0784   6.0905   6.1674
     6.2465   6.6114   6.6843   6.6900   6.8582   6.9658   6.9949   7.0677
     7.0708   7.2249   7.2622   7.3939   7.6153   7.7609   7.9103   7.9595
     8.4616   8.5000   8.5008   8.6036   8.7416   8.9852   9.1401   9.1630
     9.2187   9.3184   9.3379   9.4771   9.4955   9.6404   9.6808   9.7165
     9.8028   9.9183  10.0133  10.1203  10.1721  10.3621  10.4253  10.4570
    10.5164  10.6148  10.7236  10.8258  10.8718  11.0623  11.0797  11.1866
    11.2327  11.2552  11.4626  11.4931  11.5033  11.5975  11.6149  11.7078
    11.7256  11.8264  11.8685  11.8814  11.9954  12.0975  12.1305  12.1697
    12.2859  12.3790  12.4301  12.4485  12.5215  12.5665  12.6045  12.6342
    12.7126  12.7556  12.8300  12.8618  12.9426  13.0166  13.1578  13.2153
    13.2924  13.3155  13.3794  13.4280  13.4866  13.5351  13.5509  13.6410
    13.6808  13.6930

          k =-0.5000-0.5774 0.0000 ( 61343 PWs)   bands (ev):

  -107.8116-107.8092-107.8077-107.8069-107.8043-107.8041-107.8039-107.8031
  -107.8030-107.8024-107.8020-107.8019-107.8016-107.8009-107.8007-107.8002
  -107.7998-107.7992-107.7979-107.7973-107.7955-107.7944-107.7942-107.7938
  -107.7928-107.7925-107.7923-107.7898-107.7884-107.7877-107.7860-107.7852
  -107.7848-107.7843-107.7841-107.7827-107.5843-107.5830-107.5818-107.5804
  -107.5794-107.5792-107.5762-107.5742-107.5740-107.5506-107.5491-107.5490
  -107.5462-107.5460-107.5452-107.5451-107.5448-107.5446 -65.2621 -65.2578
   -65.2569 -65.2563 -65.2556 -65.2550 -65.2545 -65.2531 -65.2516 -65.2499
   -65.2495 -65.2485 -65.2458 -65.2443 -65.2436 -65.2432 -65.2431 -65.2407
   -65.2386 -65.2371 -65.2370 -65.2368 -65.2364 -65.2351 -65.2347 -65.2340
   -65.2331 -65.2327 -65.2303 -65.2296 -65.2258 -65.2246 -65.2243 -65.2234
   -65.2211 -65.2208 -65.2202 -65.2198 -65.2194 -65.2171 -65.2162 -65.2159
   -65.2152 -65.2144 -65.2139 -65.2134 -65.2124 -65.2103 -65.2099 -65.2096
   -65.2094 -65.2092 -65.2090 -65.2080 -65.2076 -65.2072 -65.2065 -65.2059
   -65.2054 -65.2042 -65.2039 -65.2037 -65.2035 -65.2030 -65.2015 -65.2005
   -65.2003 -65.2000 -65.1996 -65.1994 -65.1986 -65.1986 -65.1981 -65.1978
   -65.1976 -65.1968 -65.1964 -65.1957 -65.1953 -65.1948 -65.1945 -65.1935
   -65.1927 -65.1925 -65.1923 -65.1921 -65.1919 -65.1918 -65.1916 -65.1914
   -65.1898 -65.1892 -65.1889 -65.1873 -65.1868 -65.1863 -65.1860 -65.1859
   -65.1852 -65.1850 -65.1830 -65.1820 -65.1818 -65.1809 -65.1774 -65.1754
   -65.1753 -65.1716 -65.0499 -65.0485 -65.0462 -65.0394 -65.0363 -65.0346
   -65.0195 -65.0194 -65.0167 -65.0167 -65.0151 -65.0132 -65.0125 -65.0101
   -65.0089 -65.0069 -65.0063 -65.0062 -65.0060 -65.0054 -64.9997 -64.9955
   -64.9945 -64.9906 -64.9866 -64.9846 -64.9837 -64.9837 -64.9780 -64.9779
   -64.9771 -64.9770 -64.9705 -64.9660 -64.9659 -64.9622 -64.9619 -64.9606
   -64.9598 -64.9587 -64.9572 -64.9571 -64.9531 -64.9511 -64.9510 -64.9226
   -64.9213 -64.9211 -64.9185 -64.9183 -64.9175 -64.9175 -64.9172 -64.9169
   -12.7447 -10.0031 -10.0006  -6.4047  -6.3963  -4.4228  -3.4436  -2.8405
    -2.8198  -2.6376  -2.6373  -2.4980  -2.0687  -2.0664  -1.9460  -1.8902
    -1.8720  -1.2226  -1.2065  -0.8845  -0.6400  -0.6264  -0.6194  -0.2772
    -0.2761  -0.2377  -0.2104  -0.0354  -0.0354  -0.0258   0.0382   0.0780
     0.1388   0.1401   0.1592   0.1595   0.1759   0.2254   0.2370   0.2371
     0.2548   0.3535   0.3564   0.3592   0.3595   0.4293   0.4369   0.4965
     0.4981   0.5093   0.5205   0.5488   0.5490   0.5513   0.5694   0.5709
     0.6338   0.6346   0.6639   0.6643   0.6946   0.6946   0.7215   0.7297
     0.7303   0.7950   0.7953   0.8242   0.8450   0.8583   0.8587   0.9303
     0.9339   0.9845   1.0040   1.0046   1.0306   1.0311   1.0903   1.0988
     1.1000   1.1157   1.1160   1.1275   1.1677   1.1941   1.1948   1.2380
     1.2386   1.2636   1.2670   1.2690   1.2710   1.2882   1.2884   1.3447
     1.3461   1.3496   1.3506   1.3551   1.3657   1.3842   1.3856   1.3966
     1.3984   1.4243   1.4269   1.4472   1.4487   1.4503   1.4690   1.4960
     1.5359   1.5418   1.5433   1.5444   1.5455   1.5733   1.5895   1.5944
     1.5971   1.6327   1.6346   1.6359   1.6383   1.6454   1.6683   1.6883
     1.6894   1.7036   1.7037   1.7177   1.7304   1.7428   1.7440   1.7484
     1.7499   1.7675   1.7697   1.7859   1.7864   1.8024   1.8098   1.8153
     1.8302   1.8332   1.8555   1.8602   1.8692   1.8715   1.8796   1.8856
     1.8880   1.8927   1.9013   1.9017   1.9127   1.9156   1.9165   1.9182
     1.9403   1.9482   1.9555   1.9680   1.9770   1.9867   1.9931   1.9949
     2.0064   2.0070   2.0082   2.0122   2.0123   2.0163   2.0184   2.0223
     2.0404   2.0577   2.0916   2.0978   2.1500   2.1503   2.1520   2.1574
     2.1622   2.1670   2.1847   2.1850   2.2086   2.2200   2.2221   2.2302
     2.2507   2.2515   2.2884   2.2915   2.2928   2.3215   2.3226   2.3241
     2.3244   2.3263   2.3281   2.3299   2.3341   2.3427   2.3612   2.3617
     2.4061   2.4101   2.4114   2.4127   2.4190   2.4240   2.4319   2.4552
     2.4602   2.4642   2.4779   2.4999   2.5010   2.5208   2.5278   2.5285
     2.5398   2.5434   2.5730   2.5809   2.5853   2.5884   2.6139   2.6157
     2.6365   2.6416   2.6421   2.6606   2.6632   2.6835   2.6856   2.6874
     2.6895   2.6940   2.7039   2.7047   2.7100   2.7170   2.7251   2.7429
     2.7760   2.7795   2.7805   2.7869   2.8312   2.8318   2.8440   2.8483
     2.8758   2.8875   2.8890   2.8951   2.8958   2.9062   2.9109   2.9392
     2.9410   2.9412   2.9497   2.9504   2.9599   2.9627   2.9643   2.9652
     2.9686   2.9731   2.9738   2.9751   2.9782   2.9915   2.9930   3.0064
     3.0073   3.0181   3.0182   3.0194   3.0303   3.0457   3.0510   3.0576
     3.0584   3.0751   3.1028   3.1035   3.1172   3.1378   3.1386   3.2962
     3.3057   3.4064   3.4066   3.5063   3.5073   3.6195   3.8300   3.8355
     4.2144   4.2358   4.3157   4.3166   4.3308   4.5913   4.6953   4.7100
     4.7227   4.7232   4.8693   5.1660   5.1938   5.1953   5.6428   5.6783
     5.7069   5.7823   5.9331   5.9456   5.9470   6.0784   6.0905   6.1674
     6.2465   6.6114   6.6843   6.6900   6.8582   6.9658   6.9949   7.0677
     7.0708   7.2249   7.2621   7.3939   7.6153   7.7609   7.9103   7.9595
     8.4615   8.5000   8.5008   8.6036   8.7416   8.9853   9.1401   9.1629
     9.2187   9.3184   9.3379   9.4771   9.4955   9.6403   9.6808   9.7165
     9.8028   9.9183  10.0133  10.1203  10.1720  10.3621  10.4254  10.4570
    10.5164  10.6148  10.7236  10.8258  10.8718  11.0623  11.0797  11.1867
    11.2327  11.2552  11.4626  11.4931  11.5033  11.5975  11.6149  11.7078
    11.7256  11.8264  11.8686  11.8814  11.9954  12.0975  12.1305  12.1698
    12.2861  12.3790  12.4301  12.4485  12.5215  12.5666  12.6045  12.6342
    12.7126  12.7556  12.8300  12.8617  12.9426  13.0165  13.1578  13.2152
    13.2924  13.3155  13.3794  13.4280  13.4866  13.5353  13.5509  13.6410
    13.6808  13.6930

     the Fermi energy is     4.6358 ev

!    total energy              =  -21903.76723031 Ry
     Harris-Foulkes estimate   =  -21903.76723035 Ry
     estimated scf accuracy    <          5.1E-09 Ry

     The total energy is the sum of the following terms:

     one-electron contribution = -207545.36447826 Ry
     hartree contribution      =  103976.20334167 Ry
     xc contribution           =   -2143.20725220 Ry
     ewald contribution        =   83808.65383795 Ry
     smearing contrib. (-TS)   =      -0.05267948 Ry

     convergence has been achieved in  37 iterations
 
     init_run     :    101.03s CPU    103.89s WALL (       1 calls)
     electrons    :  18510.88s CPU  18821.10s WALL (       1 calls)

     Called by init_run:
     wfcinit      :     89.89s CPU     91.81s WALL (       1 calls)
     potinit      :      7.73s CPU      8.06s WALL (       1 calls)
     hinit0       :      1.36s CPU      1.40s WALL (       1 calls)

     Called by electrons:
     c_bands      :  17058.12s CPU  17307.07s WALL (      37 calls)
     sum_band     :   1147.34s CPU   1182.04s WALL (      37 calls)
     v_of_rho     :    250.88s CPU    259.23s WALL (      38 calls)
     newd         :     50.40s CPU     69.14s WALL (      38 calls)
     mix_rho      :      6.96s CPU      7.14s WALL (      37 calls)

     Called by c_bands:
     init_us_2    :     14.93s CPU     15.45s WALL (     750 calls)
     cegterg      :  16947.02s CPU  17189.75s WALL (     371 calls)

     Called by sum_band:
     sum_band:bec :      2.92s CPU      2.93s WALL (     370 calls)
     addusdens    :     34.17s CPU     54.82s WALL (      37 calls)

     Called by *egterg:
     h_psi        :   5612.91s CPU   5695.37s WALL (    1984 calls)
     s_psi        :    372.11s CPU    372.49s WALL (    1984 calls)
     g_psi        :      6.15s CPU      6.17s WALL (    1603 calls)
     cdiaghg      :   8748.32s CPU   8815.25s WALL (    1974 calls)

     Called by h_psi:
     h_psi:pot    :   5603.36s CPU   5668.31s WALL (    1984 calls)
     h_psi:calbec :    443.06s CPU    447.65s WALL (    1984 calls)
     vloc_psi     :   4786.78s CPU   4845.91s WALL (    1984 calls)
     add_vuspsi   :    373.48s CPU    374.73s WALL (    1984 calls)

     General routines
     calbec       :    593.52s CPU    598.51s WALL (    2354 calls)
     fft          :    231.41s CPU    233.08s WALL (    2393 calls)
     ffts         :      8.58s CPU      8.60s WALL (      75 calls)
     fftw         :   5476.15s CPU   5542.33s WALL ( 1485646 calls)
     interpolate  :      3.96s CPU      4.00s WALL (      38 calls)
 
     Parallel routines
     fft_scatt_xy :    227.80s CPU    230.41s WALL ( 1488114 calls)
     fft_scatt_yz :   4636.67s CPU   4689.83s WALL ( 1488114 calls)
 
     PWSCF        :     5h10m CPU       10h 5m WALL

      15h
 
   This run was terminated on:   5:47: 1  21Nov2019            

=------------------------------------------------------------------------------=
   JOB DONE.
=------------------------------------------------------------------------------=
