
     Program PWSCF v.6.3MaX starts on 18Nov2019 at 22:13:30 

     This program is part of the open-source Quantum ESPRESSO suite
     for quantum simulation of materials; please cite
         "P. Giannozzi et al., J. Phys.:Condens. Matter 21 395502 (2009);
         "P. Giannozzi et al., J. Phys.:Condens. Matter 29 465901 (2017);
          URL http://www.quantum-espresso.org", 
     in publications or presentations arising from this work. More details at
     http://www.quantum-espresso.org/quote

     Parallel version (MPI), running on    16 processors

     MPI processes distributed on     2 nodes
     R & G space division:  proc/nbgrp/npool/nimage =      16
     Waiting for input...
     Reading input from standard input

     Current dimensions of program PWSCF are:
     Max number of different atomic species (ntypx) = 10
     Max number of k-points (npk) =  40000
     Max angular momentum in pseudopotentials (lmaxx) =  3
     Message from routine iosys:
     minimal I/O required, wf_collect reset to FALSE

     IMPORTANT: XC functional enforced from input :
     Exchange-correlation      = VDW-DF ( 1  4  4  0 1 0)
     Any further DFT definition will be discarded
     Please, verify this is what you really want


     Subspace diagonalization in iterative solution of the eigenvalue problem:
     one sub-group per band group will be used
     scalapack distributed-memory algorithm (size of sub-group:  2*  2 procs)

 
     Parallelization info
     --------------------
     sticks:   dense  smooth     PW     G-vecs:    dense   smooth      PW
     Min         565     189     51               159513    30701    4383
     Max         566     190     52               159526    30710    4400
     Sum        9055    3037    823              2552337   491295   70261
 


     bravais-lattice index     =            0
     lattice parameter (alat)  =      14.8058  a.u.
     unit-cell volume          =   10282.4791 (a.u.)^3
     number of atoms/cell      =           66
     number of atomic types    =            3
     number of electrons       =      1056.00
     number of Kohn-Sham states=          634
     kinetic-energy cutoff     =      50.0000  Ry
     charge density cutoff     =     600.0000  Ry
     convergence threshold     =      1.0E-08
     mixing beta               =       0.3000
     number of iterations used =            8  plain     mixing
     Exchange-correlation      = VDW-DF ( 1  4  4  0 1 0)

     celldm(1)=  14.805786  celldm(2)=   0.000000  celldm(3)=   0.000000
     celldm(4)=   0.000000  celldm(5)=   0.000000  celldm(6)=   0.000000

     crystal axes: (cart. coord. in units of alat)
               a(1) = (   1.000000   0.000000   0.000000 )  
               a(2) = (   0.500000   0.866025   0.000000 )  
               a(3) = (   0.000000   0.000000   3.658245 )  

     reciprocal axes: (cart. coord. in units 2 pi/alat)
               b(1) = (  1.000000 -0.577350  0.000000 )  
               b(2) = (  0.000000  1.154701  0.000000 )  
               b(3) = (  0.000000  0.000000  0.273355 )  


     PseudoPot. # 1 for Cu read from file:
     /deac/thonhauserGrp/chakrad/calculations/atomandmolecule-qe6.2.1-i2012-C6modif/all_pbe_UPF_v1.5/cu_pbe_v1.2.uspp.F.UPF
     MD5 check sum: 6e991ff952a84172a2a52a1c1e996048
     Pseudo is Ultrasoft + core correction, Zval = 19.0
     Generated by new atomic code, or converted to UPF format
     Using radial grid of  867 points,  6 beta functions with: 
                l(1) =   0
                l(2) =   0
                l(3) =   1
                l(4) =   1
                l(5) =   2
                l(6) =   2
     Q(r) pseudized with  8 coefficients,  rinner =    1.150   1.150   1.150
                                                       1.150   1.150

     PseudoPot. # 2 for C  read from file:
     /deac/thonhauserGrp/chakrad/calculations/atomandmolecule-qe6.2.1-i2012-C6modif/all_pbe_UPF_v1.5/c_pbe_v1.2.uspp.F.UPF
     MD5 check sum: d1aef80898a10debaa0f26306b886e00
     Pseudo is Ultrasoft + core correction, Zval =  4.0
     Generated by new atomic code, or converted to UPF format
     Using radial grid of  721 points,  4 beta functions with: 
                l(1) =   0
                l(2) =   0
                l(3) =   1
                l(4) =   1
     Q(r) pseudized with  8 coefficients,  rinner =    1.100   1.100   1.100


     PseudoPot. # 3 for H  read from file:
     /deac/thonhauserGrp/chakrad/calculations/atomandmolecule-qe6.2.1-i2012-C6modif/all_pbe_UPF_v1.5/h_pbe_v1.4.uspp.F.UPF
     MD5 check sum: 761ae9a214b05c3daf00ab9f6b793d6f
     Pseudo is Ultrasoft, Zval =  1.0
     Generated by new atomic code, or converted to UPF format
     Using radial grid of  615 points,  2 beta functions with: 
                l(1) =   0
                l(2) =   0
     Q(r) pseudized with  8 coefficients,  rinner =    0.700

     vdW kernel table read from file vdW_kernel_table
     MD5 check sum: cc9485f6209b1096fbef62427c856dab

     atomic species   valence    mass     pseudopotential
        Cu            19.00     1.00000     Cu( 1.00)
        C              4.00     1.00000     C ( 1.00)
        H              1.00     1.00000     H ( 1.00)

     No symmetry found



   Cartesian axes

     site n.     atom                  positions (alat units)
         1           Cu  tau(   1) = (   0.1666667   0.0962250   0.2552686  )
         2           Cu  tau(   2) = (   0.5000000   0.0962250   0.2552686  )
         3           Cu  tau(   3) = (   0.8333333   0.0962250   0.2552686  )
         4           Cu  tau(   4) = (   0.3333333   0.3849002   0.2552686  )
         5           Cu  tau(   5) = (   0.6666667   0.3849002   0.2552686  )
         6           Cu  tau(   6) = (   1.0000000   0.3849002   0.2552686  )
         7           Cu  tau(   7) = (   0.5000000   0.6735753   0.2552686  )
         8           Cu  tau(   8) = (   0.8333333   0.6735753   0.2552686  )
         9           Cu  tau(   9) = (   1.1666667   0.6735753   0.2552686  )
        10           Cu  tau(  10) = (   0.0000000   0.1924501   0.5274341  )
        11           Cu  tau(  11) = (   0.3333333   0.1924501   0.5274341  )
        12           Cu  tau(  12) = (   0.6666667   0.1924501   0.5274341  )
        13           Cu  tau(  13) = (   0.1666667   0.4811252   0.5274341  )
        14           Cu  tau(  14) = (   0.5000000   0.4811252   0.5274341  )
        15           Cu  tau(  15) = (   0.8333333   0.4811252   0.5274341  )
        16           Cu  tau(  16) = (   0.3333333   0.7698004   0.5274341  )
        17           Cu  tau(  17) = (   0.6666667   0.7698004   0.5274341  )
        18           Cu  tau(  18) = (   1.0000000   0.7698004   0.5274341  )
        19           Cu  tau(  19) = (   0.0000000   0.0000000   0.7995997  )
        20           Cu  tau(  20) = (   0.3333333   0.0000000   0.7995997  )
        21           Cu  tau(  21) = (   0.6666667   0.0000000   0.7995997  )
        22           Cu  tau(  22) = (   0.1666667   0.2886751   0.7995997  )
        23           Cu  tau(  23) = (   0.5000000   0.2886751   0.7995997  )
        24           Cu  tau(  24) = (   0.8333333   0.2886751   0.7995997  )
        25           Cu  tau(  25) = (   0.3333333   0.5773503   0.7995997  )
        26           Cu  tau(  26) = (   0.6666667   0.5773503   0.7995997  )
        27           Cu  tau(  27) = (   1.0000000   0.5773503   0.7995997  )
        28           Cu  tau(  28) = (   0.1666659   0.0962246   1.0691130  )
        29           Cu  tau(  29) = (   0.5000000   0.0962241   1.0691104  )
        30           Cu  tau(  30) = (   0.8333341   0.0962246   1.0691130  )
        31           Cu  tau(  31) = (   0.3333325   0.3849006   1.0691104  )
        32           Cu  tau(  32) = (   0.6666675   0.3849006   1.0691104  )
        33           Cu  tau(  33) = (   1.0000000   0.3849003   1.0691143  )
        34           Cu  tau(  34) = (   0.5000000   0.6735762   1.0691130  )
        35           Cu  tau(  35) = (   0.8333334   0.6735753   1.0691143  )
        36           Cu  tau(  36) = (   1.1666666   0.6735753   1.0691143  )
        37           Cu  tau(  37) = (   0.0000000   0.1924486   1.3387540  )
        38           Cu  tau(  38) = (   0.3333330   0.1924499   1.3387465  )
        39           Cu  tau(  39) = (   0.6666670   0.1924499   1.3387465  )
        40           Cu  tau(  40) = (   0.1666676   0.4811247   1.3387504  )
        41           Cu  tau(  41) = (   0.5000000   0.4811256   1.3387465  )
        42           Cu  tau(  42) = (   0.8333324   0.4811247   1.3387504  )
        43           Cu  tau(  43) = (   0.3333346   0.7698011   1.3387540  )
        44           Cu  tau(  44) = (   0.6666654   0.7698011   1.3387540  )
        45           Cu  tau(  45) = (   1.0000000   0.7698014   1.3387504  )
        46           Cu  tau(  46) = (   0.0000000   0.0000000   1.6083750  )
        47           Cu  tau(  47) = (   0.3333333   0.0000005   1.6083624  )
        48           Cu  tau(  48) = (   0.6666667   0.0000005   1.6083624  )
        49           Cu  tau(  49) = (   0.1666671   0.2886748   1.6083624  )
        50           Cu  tau(  50) = (   0.5000000   0.2886751   1.6083553  )
        51           Cu  tau(  51) = (   0.8333329   0.2886748   1.6083624  )
        52           Cu  tau(  52) = (   0.3333338   0.5773500   1.6083624  )
        53           Cu  tau(  53) = (   0.6666662   0.5773500   1.6083624  )
        54           Cu  tau(  54) = (   1.0000000   0.5773503   1.6083570  )
        55           C   tau(  55) = (   0.6567407   0.3959883   2.0741831  )
        56           C   tau(  56) = (   0.5046394   0.3028152   2.0741830  )
        57           C   tau(  57) = (   0.3478975   0.3879497   2.0741831  )
        58           C   tau(  58) = (   0.3432593   0.5662630   2.0741831  )
        59           C   tau(  59) = (   0.4953606   0.6594361   2.0741830  )
        60           C   tau(  60) = (   0.6521025   0.5743016   2.0741831  )
        61           H   tau(  61) = (   0.7789959   0.3295665   2.0742613  )
        62           H   tau(  62) = (   0.5082587   0.1637263   2.0742614  )
        63           H   tau(  63) = (   0.2292624   0.3152577   2.0742613  )
        64           H   tau(  64) = (   0.2210041   0.6326847   2.0742613  )
        65           H   tau(  65) = (   0.4917413   0.7985249   2.0742614  )
        66           H   tau(  66) = (   0.7707376   0.6469936   2.0742613  )

     number of k points=    10  gaussian smearing, width (Ry)=  0.0200
                       cart. coord. in units 2pi/alat
        k(    1) = (   0.0000000   0.0000000   0.0000000), wk =   0.1250000
        k(    2) = (   0.0000000   0.2886751   0.0000000), wk =   0.2500000
        k(    3) = (   0.0000000  -0.5773503   0.0000000), wk =   0.1250000
        k(    4) = (   0.2500000  -0.7216878   0.0000000), wk =   0.2500000
        k(    5) = (  -0.2500000   0.1443376   0.0000000), wk =   0.2500000
        k(    6) = (   0.2500000   0.1443376   0.0000000), wk =   0.2500000
        k(    7) = (   0.5000000  -0.2886751   0.0000000), wk =   0.1250000
        k(    8) = (  -0.5000000  -0.2886751   0.0000000), wk =   0.1250000
        k(    9) = (  -0.2500000  -0.7216878   0.0000000), wk =   0.2500000
        k(   10) = (  -0.5000000  -0.5773503   0.0000000), wk =   0.2500000

     Dense  grid:  2552337 G-vectors     FFT dimensions: ( 120, 120, 432)

     Smooth grid:   491295 G-vectors     FFT dimensions: (  72,  72, 243)

     Estimated max dynamical RAM per process >       1.14 GB

     Estimated total dynamical RAM >      18.26 GB

     Initial potential from superposition of free atoms
     Check: negative starting charge=   -0.000725

     starting charge 1001.99960, renormalised to 1056.00000

     negative rho (up, down):  7.641E-04 0.000E+00


     %%%%%%%%%%%%%%%%%%%%%%%%%%%%%%%%%%%%%%%%%%%%%%%%%%%%%%%%%%%%%%%%%%%%%%%%
     %                                                                      %
     % You are using vdW-DF, which was implemented by the Thonhauser group. %
     % Please cite the following two papers that made this development      %
     % possible and the two reviews that describe the various versions:     %
     %                                                                      %
     %   T. Thonhauser et al., PRL 115, 136402 (2015).                      %
     %   T. Thonhauser et al., PRB 76, 125112 (2007).                       %
     %   K. Berland et al., Rep. Prog. Phys. 78, 066501 (2015).             %
     %   D.C. Langreth et al., J. Phys.: Condens. Matter 21, 084203 (2009). %
     %                                                                      %
     %                                                                      %
     % If you are calculating the stress with vdW-DF, please also cite:     %
     %                                                                      %
     %   R. Sabatini et al., J. Phys.: Condens. Matter 24, 424209 (2012).   %
     %                                                                      %
     %%%%%%%%%%%%%%%%%%%%%%%%%%%%%%%%%%%%%%%%%%%%%%%%%%%%%%%%%%%%%%%%%%%%%%%%


     Starting wfcs are  732 randomized atomic wfcs

     total cpu time spent up to now is       96.1 secs

     Self-consistent Calculation

     iteration #  1     ecut=    50.00 Ry     beta= 0.30
     Davidson diagonalization with overlap
     ethr =  1.00E-02,  avg # of iterations =  5.4

     negative rho (up, down):  4.826E-04 0.000E+00

     total cpu time spent up to now is     1488.7 secs

     total energy              =  -19031.11228413 Ry
     Harris-Foulkes estimate   =  -22005.16100807 Ry
     estimated scf accuracy    <    5878.94217633 Ry

     iteration #  2     ecut=    50.00 Ry     beta= 0.30
     Davidson diagonalization with overlap
     ethr =  1.00E-02,  avg # of iterations = 19.3

     negative rho (up, down):  5.176E-04 0.000E+00

     total cpu time spent up to now is     4796.9 secs

     total energy              =  -19246.85693541 Ry
     Harris-Foulkes estimate   =  -38761.15315216 Ry
     estimated scf accuracy    <  282756.60599867 Ry

     iteration #  3     ecut=    50.00 Ry     beta= 0.30
     Davidson diagonalization with overlap
     ethr =  1.00E-02,  avg # of iterations =  7.0

     negative rho (up, down):  5.908E-04 0.000E+00

     total cpu time spent up to now is     6466.8 secs

     total energy              =  -21724.94102401 Ry
     Harris-Foulkes estimate   =  -23353.89888500 Ry
     estimated scf accuracy    <   43356.91614572 Ry

     iteration #  4     ecut=    50.00 Ry     beta= 0.30
     Davidson diagonalization with overlap
     ethr =  1.00E-02,  avg # of iterations =  7.3

     negative rho (up, down):  7.982E-04 0.000E+00

     total cpu time spent up to now is     7788.1 secs

     total energy              =  -21722.69299648 Ry
     Harris-Foulkes estimate   =  -22108.83450167 Ry
     estimated scf accuracy    <   10625.86433456 Ry

     iteration #  5     ecut=    50.00 Ry     beta= 0.30
     Davidson diagonalization with overlap
     ethr =  1.00E-02,  avg # of iterations =  6.0

     negative rho (up, down):  2.459E-07 0.000E+00

     total cpu time spent up to now is     9271.6 secs

     total energy              =  -21702.66814836 Ry
     Harris-Foulkes estimate   =  -22159.19809849 Ry
     estimated scf accuracy    <    9184.44600827 Ry

     iteration #  6     ecut=    50.00 Ry     beta= 0.30
     Davidson diagonalization with overlap
     ethr =  1.00E-02,  avg # of iterations =  5.4

     negative rho (up, down):  4.410E-07 0.000E+00

     total cpu time spent up to now is    10346.6 secs

     total energy              =  -21878.20709435 Ry
     Harris-Foulkes estimate   =  -21978.11144696 Ry
     estimated scf accuracy    <     813.55519006 Ry

     iteration #  7     ecut=    50.00 Ry     beta= 0.30
     Davidson diagonalization with overlap
     ethr =  1.00E-02,  avg # of iterations =  3.0

     negative rho (up, down):  4.026E-06 0.000E+00

     total cpu time spent up to now is    10693.5 secs

     total energy              =  -21908.95001070 Ry
     Harris-Foulkes estimate   =  -21936.67672747 Ry
     estimated scf accuracy    <     483.49440755 Ry

     iteration #  8     ecut=    50.00 Ry     beta= 0.30
     Davidson diagonalization with overlap
     ethr =  1.00E-02,  avg # of iterations =  2.7

     negative rho (up, down):  4.853E-05 0.000E+00

     total cpu time spent up to now is    10992.7 secs

     total energy              =  -21912.94283592 Ry
     Harris-Foulkes estimate   =  -21922.86004468 Ry
     estimated scf accuracy    <      72.34555045 Ry

     iteration #  9     ecut=    50.00 Ry     beta= 0.30
     Davidson diagonalization with overlap
     ethr =  6.85E-03,  avg # of iterations =  1.2

     negative rho (up, down):  7.400E-05 0.000E+00

     total cpu time spent up to now is    11236.5 secs

     total energy              =  -21914.74076544 Ry
     Harris-Foulkes estimate   =  -21915.57943849 Ry
     estimated scf accuracy    <     112.05099437 Ry

     iteration # 10     ecut=    50.00 Ry     beta= 0.30
     Davidson diagonalization with overlap
     ethr =  6.85E-03,  avg # of iterations =  1.6

     negative rho (up, down):  2.520E-02 0.000E+00

     total cpu time spent up to now is    11488.7 secs

     total energy              =  -21891.44439611 Ry
     Harris-Foulkes estimate   =  -21914.93123106 Ry
     estimated scf accuracy    <     109.32162325 Ry

     iteration # 11     ecut=    50.00 Ry     beta= 0.30
     Davidson diagonalization with overlap
     ethr =  6.85E-03,  avg # of iterations =  5.4

     total cpu time spent up to now is    12230.0 secs

     total energy              =  -21896.28259093 Ry
     Harris-Foulkes estimate   =  -21923.79177308 Ry
     estimated scf accuracy    <     553.75369463 Ry

     iteration # 12     ecut=    50.00 Ry     beta= 0.30
     Davidson diagonalization with overlap
     ethr =  6.85E-03,  avg # of iterations =  3.0

     negative rho (up, down):  9.118E-08 0.000E+00

     total cpu time spent up to now is    12531.8 secs

     total energy              =  -21899.08814598 Ry
     Harris-Foulkes estimate   =  -21907.62450838 Ry
     estimated scf accuracy    <      54.77643071 Ry

     iteration # 13     ecut=    50.00 Ry     beta= 0.30
     Davidson diagonalization with overlap
     ethr =  5.19E-03,  avg # of iterations =  3.3

     negative rho (up, down):  7.579E-08 0.000E+00

     total cpu time spent up to now is    12873.6 secs

     total energy              =  -21903.87053120 Ry
     Harris-Foulkes estimate   =  -21904.25437728 Ry
     estimated scf accuracy    <       4.87026406 Ry

     iteration # 14     ecut=    50.00 Ry     beta= 0.30
     Davidson diagonalization with overlap
     ethr =  4.61E-04,  avg # of iterations =  7.6

     total cpu time spent up to now is    13400.1 secs

     total energy              =  -21903.80242551 Ry
     Harris-Foulkes estimate   =  -21904.21939181 Ry
     estimated scf accuracy    <       4.89248651 Ry

     iteration # 15     ecut=    50.00 Ry     beta= 0.30
     Davidson diagonalization with overlap
     ethr =  4.61E-04,  avg # of iterations =  1.9

     negative rho (up, down):  1.308E-08 0.000E+00

     total cpu time spent up to now is    13665.0 secs

     total energy              =  -21903.85180221 Ry
     Harris-Foulkes estimate   =  -21903.98752711 Ry
     estimated scf accuracy    <       2.14768263 Ry

     iteration # 16     ecut=    50.00 Ry     beta= 0.30
     Davidson diagonalization with overlap
     ethr =  2.03E-04,  avg # of iterations =  4.9

     negative rho (up, down):  4.388E-08 0.000E+00

     total cpu time spent up to now is    14039.0 secs

     total energy              =  -21903.86375996 Ry
     Harris-Foulkes estimate   =  -21903.92362303 Ry
     estimated scf accuracy    <       1.32104824 Ry

     iteration # 17     ecut=    50.00 Ry     beta= 0.30
     Davidson diagonalization with overlap
     ethr =  1.25E-04,  avg # of iterations =  6.6

     negative rho (up, down):  5.617E-07 0.000E+00

     total cpu time spent up to now is    14483.8 secs

     total energy              =  -21903.82646709 Ry
     Harris-Foulkes estimate   =  -21903.88089522 Ry
     estimated scf accuracy    <       0.74698452 Ry

     iteration # 18     ecut=    50.00 Ry     beta= 0.30
     Davidson diagonalization with overlap
     ethr =  7.07E-05,  avg # of iterations =  7.6

     negative rho (up, down):  7.901E-02 0.000E+00

     total cpu time spent up to now is    14973.3 secs

     total energy              =  -21903.77267357 Ry
     Harris-Foulkes estimate   =  -21903.83871805 Ry
     estimated scf accuracy    <       0.40084802 Ry

     iteration # 19     ecut=    50.00 Ry     beta= 0.30
     Davidson diagonalization with overlap
     ethr =  3.80E-05,  avg # of iterations =  6.4

     negative rho (up, down):  8.896E-02 0.000E+00

     total cpu time spent up to now is    15494.2 secs

     total energy              =  -21903.77909409 Ry
     Harris-Foulkes estimate   =  -21903.82256608 Ry
     estimated scf accuracy    <       0.35319631 Ry

     iteration # 20     ecut=    50.00 Ry     beta= 0.30
     Davidson diagonalization with overlap
     ethr =  3.34E-05,  avg # of iterations =  5.8

     negative rho (up, down):  4.571E-02 0.000E+00

     total cpu time spent up to now is    15898.0 secs

     total energy              =  -21903.74870813 Ry
     Harris-Foulkes estimate   =  -21903.79598095 Ry
     estimated scf accuracy    <       0.30076198 Ry

     iteration # 21     ecut=    50.00 Ry     beta= 0.30
     Davidson diagonalization with overlap
     ethr =  2.85E-05,  avg # of iterations = 10.5

     negative rho (up, down):  1.797E-02 0.000E+00

     total cpu time spent up to now is    16566.2 secs

     total energy              =  -21903.76591407 Ry
     Harris-Foulkes estimate   =  -21903.77631647 Ry
     estimated scf accuracy    <       0.06370057 Ry

     iteration # 22     ecut=    50.00 Ry     beta= 0.30
     Davidson diagonalization with overlap
     ethr =  6.03E-06,  avg # of iterations = 11.8

     negative rho (up, down):  1.407E-02 0.000E+00

     total cpu time spent up to now is    17274.8 secs

     total energy              =  -21903.76795735 Ry
     Harris-Foulkes estimate   =  -21903.77092532 Ry
     estimated scf accuracy    <       0.03011705 Ry

     iteration # 23     ecut=    50.00 Ry     beta= 0.30
     Davidson diagonalization with overlap
     ethr =  2.85E-06,  avg # of iterations =  9.2

     negative rho (up, down):  1.348E-02 0.000E+00

     total cpu time spent up to now is    17829.7 secs

     total energy              =  -21903.76850007 Ry
     Harris-Foulkes estimate   =  -21903.76979229 Ry
     estimated scf accuracy    <       0.00619799 Ry

     iteration # 24     ecut=    50.00 Ry     beta= 0.30
     Davidson diagonalization with overlap
     ethr =  5.87E-07,  avg # of iterations =  2.6

     negative rho (up, down):  8.013E-03 0.000E+00

     total cpu time spent up to now is    18119.9 secs

     total energy              =  -21903.76870864 Ry
     Harris-Foulkes estimate   =  -21903.76944062 Ry
     estimated scf accuracy    <       0.00243703 Ry

     iteration # 25     ecut=    50.00 Ry     beta= 0.30
     Davidson diagonalization with overlap
     ethr =  2.31E-07,  avg # of iterations =  7.3

     negative rho (up, down):  6.759E-03 0.000E+00

     total cpu time spent up to now is    18627.4 secs

     total energy              =  -21903.76875157 Ry
     Harris-Foulkes estimate   =  -21903.76929095 Ry
     estimated scf accuracy    <       0.00753565 Ry

     iteration # 26     ecut=    50.00 Ry     beta= 0.30
     Davidson diagonalization with overlap
     ethr =  2.31E-07,  avg # of iterations =  3.7

     negative rho (up, down):  5.505E-03 0.000E+00

     total cpu time spent up to now is    18952.5 secs

     total energy              =  -21903.76900033 Ry
     Harris-Foulkes estimate   =  -21903.76904907 Ry
     estimated scf accuracy    <       0.00025035 Ry

     iteration # 27     ecut=    50.00 Ry     beta= 0.30
     Davidson diagonalization with overlap
     ethr =  2.37E-08,  avg # of iterations =  3.8

     negative rho (up, down):  4.230E-03 0.000E+00

     total cpu time spent up to now is    19288.7 secs

     total energy              =  -21903.76903099 Ry
     Harris-Foulkes estimate   =  -21903.76903640 Ry
     estimated scf accuracy    <       0.00011586 Ry

     iteration # 28     ecut=    50.00 Ry     beta= 0.30
     Davidson diagonalization with overlap
     ethr =  1.10E-08,  avg # of iterations =  4.5

     negative rho (up, down):  3.632E-03 0.000E+00

     total cpu time spent up to now is    19642.8 secs

     total energy              =  -21903.76904287 Ry
     Harris-Foulkes estimate   =  -21903.76904096 Ry
     estimated scf accuracy    <       0.00004015 Ry

     iteration # 29     ecut=    50.00 Ry     beta= 0.30
     Davidson diagonalization with overlap
     ethr =  3.80E-09,  avg # of iterations =  2.1

     negative rho (up, down):  2.747E-03 0.000E+00

     total cpu time spent up to now is    19913.8 secs

     total energy              =  -21903.76905749 Ry
     Harris-Foulkes estimate   =  -21903.76904803 Ry
     estimated scf accuracy    <       0.00004081 Ry

     iteration # 30     ecut=    50.00 Ry     beta= 0.30
     Davidson diagonalization with overlap
     ethr =  3.80E-09,  avg # of iterations =  2.4

     negative rho (up, down):  2.647E-03 0.000E+00

     total cpu time spent up to now is    20194.7 secs

     total energy              =  -21903.76906029 Ry
     Harris-Foulkes estimate   =  -21903.76906046 Ry
     estimated scf accuracy    <       0.00000939 Ry

     iteration # 31     ecut=    50.00 Ry     beta= 0.30
     Davidson diagonalization with overlap
     ethr =  8.89E-10,  avg # of iterations =  2.0

     negative rho (up, down):  2.504E-03 0.000E+00

     total cpu time spent up to now is    20460.6 secs

     total energy              =  -21903.76906285 Ry
     Harris-Foulkes estimate   =  -21903.76906252 Ry
     estimated scf accuracy    <       0.00003612 Ry

     iteration # 32     ecut=    50.00 Ry     beta= 0.30
     Davidson diagonalization with overlap
     ethr =  8.89E-10,  avg # of iterations =  2.0

     negative rho (up, down):  2.461E-03 0.000E+00

     total cpu time spent up to now is    20727.1 secs

     total energy              =  -21903.76906435 Ry
     Harris-Foulkes estimate   =  -21903.76906383 Ry
     estimated scf accuracy    <       0.00000053 Ry

     iteration # 33     ecut=    50.00 Ry     beta= 0.30
     Davidson diagonalization with overlap
     ethr =  5.04E-11,  avg # of iterations =  2.7

     negative rho (up, down):  2.418E-03 0.000E+00

     total cpu time spent up to now is    21110.5 secs

     total energy              =  -21903.76906494 Ry
     Harris-Foulkes estimate   =  -21903.76906447 Ry
     estimated scf accuracy    <       0.00000046 Ry

     iteration # 34     ecut=    50.00 Ry     beta= 0.30
     Davidson diagonalization with overlap
     ethr =  4.35E-11,  avg # of iterations =  2.0

     negative rho (up, down):  2.398E-03 0.000E+00

     total cpu time spent up to now is    21377.5 secs

     total energy              =  -21903.76906522 Ry
     Harris-Foulkes estimate   =  -21903.76906499 Ry
     estimated scf accuracy    <       0.00000018 Ry

     iteration # 35     ecut=    50.00 Ry     beta= 0.30
     Davidson diagonalization with overlap
     ethr =  1.70E-11,  avg # of iterations =  2.0

     negative rho (up, down):  2.381E-03 0.000E+00

     total cpu time spent up to now is    21645.8 secs

     total energy              =  -21903.76906544 Ry
     Harris-Foulkes estimate   =  -21903.76906524 Ry
     estimated scf accuracy    <       0.00000011 Ry

     iteration # 36     ecut=    50.00 Ry     beta= 0.30
     Davidson diagonalization with overlap
     ethr =  1.01E-11,  avg # of iterations =  2.0

     negative rho (up, down):  2.379E-03 0.000E+00

     total cpu time spent up to now is    21915.8 secs

     total energy              =  -21903.76906546 Ry
     Harris-Foulkes estimate   =  -21903.76906546 Ry
     estimated scf accuracy    <       0.00000028 Ry

     iteration # 37     ecut=    50.00 Ry     beta= 0.30
     Davidson diagonalization with overlap
     ethr =  1.01E-11,  avg # of iterations =  1.0

     negative rho (up, down):  2.381E-03 0.000E+00

     total cpu time spent up to now is    22156.1 secs

     End of self-consistent calculation

          k = 0.0000 0.0000 0.0000 ( 61453 PWs)   bands (ev):

  -107.8636-107.8592-107.8572-107.8571-107.8571-107.8567-107.8567-107.8562
  -107.8549-107.8535-107.8535-107.8534-107.8534-107.8528-107.8528-107.8524
  -107.8520-107.8519-107.8483-107.8476-107.8476-107.8475-107.8468-107.8468
  -107.8466-107.8445-107.8445-107.8427-107.8387-107.8380-107.8380-107.8380
  -107.8380-107.8372-107.8356-107.8352-107.6257-107.6217-107.6217-107.6211
  -107.6195-107.6195-107.6187-107.6166-107.6166-107.6040-107.5990-107.5990
  -107.5990-107.5989-107.5989-107.5989-107.5964-107.5964 -65.3179 -65.3050
   -65.3044 -65.3044 -65.3040 -65.3040 -65.3034 -65.2969 -65.2968 -65.2968
   -65.2964 -65.2964 -65.2959 -65.2959 -65.2957 -65.2926 -65.2926 -65.2926
   -65.2923 -65.2904 -65.2849 -65.2849 -65.2846 -65.2839 -65.2837 -65.2837
   -65.2821 -65.2820 -65.2820 -65.2817 -65.2817 -65.2812 -65.2810 -65.2810
   -65.2786 -65.2786 -65.2782 -65.2780 -65.2726 -65.2726 -65.2725 -65.2720
   -65.2720 -65.2720 -65.2711 -65.2711 -65.2676 -65.2676 -65.2662 -65.2646
   -65.2646 -65.2642 -65.2642 -65.2642 -65.2642 -65.2639 -65.2620 -65.2573
   -65.2573 -65.2562 -65.2562 -65.2561 -65.2558 -65.2558 -65.2557 -65.2542
   -65.2542 -65.2542 -65.2534 -65.2530 -65.2530 -65.2526 -65.2526 -65.2499
   -65.2499 -65.2463 -65.2460 -65.2460 -65.2459 -65.2458 -65.2458 -65.2456
   -65.2456 -65.2451 -65.2450 -65.2448 -65.2448 -65.2423 -65.2396 -65.2396
   -65.2392 -65.2390 -65.2390 -65.2389 -65.2389 -65.2389 -65.2331 -65.2331
   -65.2315 -65.2315 -65.2314 -65.2311 -65.2309 -65.2309 -65.2271 -65.2271
   -65.2204 -65.2204 -65.0784 -65.0780 -65.0780 -65.0770 -65.0770 -65.0763
   -65.0746 -65.0746 -65.0745 -65.0736 -65.0584 -65.0583 -65.0582 -65.0582
   -65.0581 -65.0581 -65.0557 -65.0557 -65.0554 -65.0552 -65.0430 -65.0424
   -65.0424 -65.0414 -65.0414 -65.0412 -65.0297 -65.0297 -65.0229 -65.0229
   -65.0229 -65.0229 -65.0229 -65.0227 -65.0107 -65.0107 -65.0014 -64.9978
   -64.9978 -64.9970 -64.9955 -64.9955 -64.9945 -64.9926 -64.9926 -64.9761
   -64.9714 -64.9714 -64.9714 -64.9712 -64.9712 -64.9712 -64.9689 -64.9689
   -12.5844  -9.8413  -9.8410  -6.2520  -6.2515  -4.3286  -4.1283  -3.5080
    -2.7352  -2.5576  -2.3371  -1.6898  -1.6897  -1.4311  -1.1631  -1.1627
    -1.1627  -1.1626  -1.1626  -1.1625  -0.7610  -0.7583  -0.7583  -0.7583
    -0.7583  -0.7583  -0.6038  -0.4205  -0.2610  -0.2582  -0.2582  -0.2579
    -0.2579  -0.2579  -0.2429   0.1918   0.1918   0.1922   0.1922   0.1930
     0.1956   0.2458   0.2461   0.5422   0.5422   0.5430   0.5433   0.5433
     0.5446   0.6681   0.6681   0.6682   0.6683   0.6683   0.6687   0.7176
     0.7176   0.7179   0.7179   0.7179   0.7183   0.7460   0.7460   0.7599
     0.7599   0.7711   0.7711   0.8668   0.8668   0.8746   0.8746   0.8956
     0.8956   0.8959   0.8963   0.8963   0.8968   0.9050   0.9050   0.9060
     0.9060   0.9559   0.9559   0.9979   0.9979   1.1051   1.1051   1.1087
     1.1087   1.1094   1.1095   1.1095   1.1104   1.1425   1.1425   1.3441
     1.3442   1.3457   1.3459   1.3459   1.3470   1.4753   1.4753   1.4835
     1.4835   1.4973   1.4974   1.4984   1.4984   1.4986   1.4992   1.5372
     1.5424   1.5425   1.5568   1.6109   1.6109   1.6119   1.6119   1.6119
     1.6123   1.6247   1.6247   1.6502   1.6502   1.6815   1.6867   1.6867
     1.6963   1.6963   1.6982   1.6982   1.6983   1.6988   1.7366   1.7366
     1.7490   1.7490   1.7497   1.7497   1.7497   1.7501   1.7690   1.7691
     1.7691   1.7695   1.7695   1.7696   1.7754   1.7754   1.7921   1.8844
     1.8844   1.8943   1.8943   1.8995   1.8995   1.8996   1.9011   1.9141
     1.9141   1.9206   1.9212   1.9417   1.9417   1.9460   1.9460   1.9698
     1.9698   1.9711   1.9711   1.9711   1.9715   1.9717   1.9717   2.1113
     2.1113   2.1640   2.1642   2.1642   2.1667   2.2297   2.2298   2.2298
     2.2301   2.2301   2.2302   2.2383   2.2383   2.2950   2.2950   2.2957
     2.2972   2.3055   2.3055   2.3095   2.3095   2.3315   2.3315   2.3594
     2.3595   2.3719   2.3976   2.3976   2.4270   2.4270   2.4345   2.4345
     2.4347   2.4369   2.4548   2.4548   2.4603   2.4603   2.4603   2.4606
     2.4607   2.4607   2.4646   2.4646   2.4657   2.4657   2.5348   2.5348
     2.5993   2.5994   2.5994   2.5996   2.5997   2.5997   2.6564   2.6570
     2.6570   2.6585   2.6586   2.6587   2.6587   2.6590   2.6590   2.6590
     2.6643   2.6643   2.7229   2.7229   2.7275   2.7275   2.7276   2.7278
     2.7280   2.7280   2.7389   2.7390   2.7390   2.7393   2.7393   2.7393
     2.7634   2.7634   2.7634   2.7637   2.7637   2.7638   2.7949   2.7949
     2.8046   2.8046   2.8332   2.8335   2.8335   2.8338   2.8338   2.8338
     2.8370   2.8371   2.8587   2.8589   2.8589   2.8590   2.8590   2.8591
     2.8873   2.8873   2.8904   2.8904   2.8913   2.8913   2.9109   2.9110
     2.9261   2.9262   2.9262   2.9265   2.9265   2.9265   2.9521   2.9521
     2.9521   2.9536   2.9536   2.9569   2.9769   2.9769   3.0033   3.0033
     3.0033   3.0038   3.0039   3.0039   3.8233   3.9346   3.9346   3.9353
     3.9489   3.9602   3.9602   4.4108   5.3641   5.3641   5.3688   5.3853
     5.4025   5.4025   7.0420   7.0420   7.0587   7.1417   7.2122   7.2122
     7.2695   7.4859   7.4861   7.7966   7.7967   7.7968   7.7968   7.8124
     7.8124   8.1678   8.1902   8.1902   8.2098   8.2098   8.4999   8.6083
     8.6092   8.7810   8.8655   8.8661   8.8673   8.8673   8.9816   8.9816
     8.9975   9.2185   9.4828   9.4828   9.4884   9.4884   9.4925   9.8021
     9.8023   9.8650   9.8666   9.8749  10.5567  10.5655  10.6456  10.6456
    10.6583  10.6583  10.8052  10.8052  10.8514  10.8514  10.8812  11.0678
    11.1548  11.1549  11.2845  11.2936  11.2936  11.3079  11.3079  11.3224
    11.4370  11.6893  11.6893  11.7926  11.8034  11.8034  11.8515  11.8515
    11.8738  11.8738  11.8761  11.9412  11.9413  12.0254  12.1017  12.2162
    12.2162  12.2422  12.3199  12.3199  12.3216  12.4563  12.4563  12.7013
    12.9091  12.9097  12.9098  12.9875  12.9897  12.9898  12.9993  13.0322
    13.0809  13.0959

          k = 0.0000 0.2887 0.0000 ( 61417 PWs)   bands (ev):

  -107.8631-107.8597-107.8584-107.8577-107.8572-107.8561-107.8557-107.8553
  -107.8548-107.8541-107.8539-107.8533-107.8532-107.8531-107.8527-107.8521
  -107.8519-107.8516-107.8489-107.8482-107.8479-107.8477-107.8464-107.8463
  -107.8458-107.8446-107.8446-107.8423-107.8397-107.8386-107.8385-107.8373
  -107.8372-107.8366-107.8359-107.8353-107.6254-107.6225-107.6218-107.6210
  -107.6194-107.6193-107.6184-107.6167-107.6166-107.6036-107.6006-107.5996
  -107.5996-107.5981-107.5981-107.5977-107.5966-107.5966 -65.3165 -65.3074
   -65.3068 -65.3056 -65.3046 -65.3045 -65.3039 -65.3037 -65.3008 -65.3007
   -65.2999 -65.2998 -65.2981 -65.2980 -65.2934 -65.2920 -65.2920 -65.2900
   -65.2894 -65.2883 -65.2881 -65.2881 -65.2879 -65.2876 -65.2856 -65.2856
   -65.2852 -65.2849 -65.2809 -65.2809 -65.2780 -65.2778 -65.2776 -65.2765
   -65.2764 -65.2757 -65.2751 -65.2750 -65.2730 -65.2729 -65.2705 -65.2705
   -65.2672 -65.2671 -65.2668 -65.2666 -65.2657 -65.2656 -65.2648 -65.2638
   -65.2635 -65.2625 -65.2621 -65.2610 -65.2608 -65.2606 -65.2598 -65.2592
   -65.2590 -65.2573 -65.2569 -65.2569 -65.2566 -65.2566 -65.2564 -65.2540
   -65.2539 -65.2518 -65.2517 -65.2510 -65.2510 -65.2495 -65.2494 -65.2492
   -65.2486 -65.2483 -65.2483 -65.2480 -65.2477 -65.2477 -65.2476 -65.2461
   -65.2460 -65.2443 -65.2441 -65.2436 -65.2430 -65.2424 -65.2422 -65.2419
   -65.2419 -65.2414 -65.2405 -65.2384 -65.2384 -65.2367 -65.2351 -65.2351
   -65.2351 -65.2342 -65.2338 -65.2315 -65.2315 -65.2307 -65.2282 -65.2276
   -65.2245 -65.2214 -65.0888 -65.0834 -65.0834 -65.0819 -65.0816 -65.0702
   -65.0700 -65.0697 -65.0645 -65.0643 -65.0642 -65.0641 -65.0630 -65.0629
   -65.0613 -65.0511 -65.0510 -65.0463 -65.0459 -65.0453 -65.0453 -65.0448
   -65.0424 -65.0419 -65.0418 -65.0379 -65.0339 -65.0308 -65.0270 -65.0269
   -65.0258 -65.0229 -65.0228 -65.0188 -65.0150 -65.0118 -65.0011 -64.9984
   -64.9979 -64.9970 -64.9953 -64.9953 -64.9943 -64.9926 -64.9926 -64.9757
   -64.9729 -64.9719 -64.9719 -64.9705 -64.9705 -64.9701 -64.9691 -64.9691
   -12.5836  -9.8448  -9.8418  -6.2548  -6.2474  -4.3023  -3.9149  -3.2989
    -2.7078  -2.3569  -2.3408  -2.3118  -1.7673  -1.7347  -1.6972  -1.6008
    -1.6005  -1.2437  -1.1173  -1.1165  -0.9636  -0.5452  -0.5446  -0.5172
    -0.4535  -0.4448  -0.3400  -0.3331  -0.2584  -0.2580  -0.1233  -0.0903
    -0.0854   0.0123   0.0165   0.0168   0.1883   0.1921   0.2111   0.2231
     0.2447   0.2887   0.2891   0.4723   0.4774   0.5075   0.5076   0.5333
     0.5436   0.5436   0.5673   0.5674   0.6137   0.6151   0.6167   0.6172
     0.6295   0.6296   0.6698   0.6698   0.7064   0.7065   0.7350   0.7350
     0.7428   0.7859   0.7863   0.8007   0.8007   0.8229   0.8231   0.8358
     0.8358   0.8692   0.8693   0.9105   0.9790   0.9790   0.9850   1.0092
     1.0092   1.0233   1.0236   1.0592   1.0593   1.0940   1.0966   1.0967
     1.1595   1.1595   1.1846   1.1859   1.2065   1.2066   1.2516   1.2518
     1.2684   1.2887   1.2946   1.2950   1.3229   1.3638   1.3641   1.3832
     1.3833   1.3904   1.4263   1.4282   1.4391   1.4633   1.4634   1.4708
     1.5030   1.5033   1.5320   1.5688   1.5818   1.5919   1.5920   1.6047
     1.6049   1.6050   1.6418   1.6437   1.6493   1.6615   1.6617   1.6771
     1.6819   1.6820   1.6991   1.7025   1.7120   1.7202   1.7323   1.7403
     1.7405   1.7494   1.7543   1.7549   1.7571   1.7742   1.7750   1.7784
     1.7785   1.7825   1.8026   1.8057   1.8155   1.8260   1.8279   1.8378
     1.8392   1.8501   1.8510   1.8856   1.8859   1.8969   1.8973   1.8980
     1.9125   1.9214   1.9216   1.9233   1.9247   1.9306   1.9375   1.9530
     1.9835   1.9845   1.9963   1.9997   2.0082   2.0084   2.0198   2.0309
     2.0323   2.0329   2.0383   2.0617   2.0618   2.0756   2.1052   2.1121
     2.1379   2.1383   2.1518   2.1542   2.1599   2.1600   2.2224   2.2386
     2.2393   2.2434   2.2655   2.2692   2.2760   2.2812   2.2864   2.2893
     2.3146   2.3218   2.3277   2.3301   2.3343   2.3358   2.3696   2.3703
     2.3961   2.4021   2.4048   2.4061   2.4135   2.4390   2.4435   2.4446
     2.4490   2.4529   2.4808   2.4918   2.4957   2.5023   2.5027   2.5201
     2.5243   2.5246   2.5413   2.5448   2.5450   2.5456   2.5544   2.5578
     2.5818   2.5917   2.6296   2.6336   2.6390   2.6670   2.6680   2.6763
     2.6793   2.6798   2.6806   2.6840   2.7038   2.7040   2.7064   2.7188
     2.7213   2.7236   2.7270   2.7313   2.7561   2.7726   2.7726   2.7768
     2.7864   2.7867   2.8073   2.8081   2.8144   2.8157   2.8596   2.8601
     2.8602   2.8697   2.8697   2.8731   2.8837   2.8847   2.8921   2.8952
     2.8953   2.8955   2.9027   2.9029   2.9048   2.9108   2.9191   2.9193
     2.9368   2.9494   2.9495   2.9502   2.9519   2.9573   2.9588   2.9590
     2.9810   2.9900   2.9972   3.0013   3.0017   3.0061   3.0190   3.0194
     3.0922   3.1089   3.1487   3.2433   3.2666   3.2667   3.3417   3.4271
     3.4272   3.6807   3.7331   3.7334   3.7372   3.7483   4.0458   4.2365
     4.4249   4.7078   4.7087   4.9189   5.0078   5.0174   5.0573   5.7934
     5.7936   6.0089   6.1620   6.1719   6.1919   6.1924   6.4416   6.6868
     6.7324   6.8694   6.8758   7.2608   7.3618   7.4248   7.4665   7.6923
     7.7265   7.7359   7.9187   7.9772   8.1861   8.1919   8.2668   8.3413
     8.3721   8.6613   8.6627   8.7674   8.8141   8.9247   9.2118   9.2133
     9.3088   9.3773   9.5640   9.6084   9.7607   9.8095   9.9159   9.9451
     9.9668   9.9685  10.0160  10.0797  10.2589  10.3627  10.3636  10.4722
    10.5000  10.5259  10.6009  10.6149  10.6982  10.7417  10.7452  10.8120
    10.9077  10.9130  10.9268  11.0716  11.0990  11.2132  11.4158  11.4359
    11.4542  11.4947  11.5175  11.5745  11.6597  11.7605  11.9040  12.0041
    12.0120  12.1466  12.2031  12.2883  12.3097  12.4067  12.4773  12.5138
    12.5287  12.5616  12.5969  12.6633  12.8093  12.8104  12.8361  12.8681
    12.9415  12.9853  13.0990  13.1172  13.1667  13.2035  13.2051  13.3112
    13.3950  13.4671

          k = 0.0000-0.5774 0.0000 ( 61408 PWs)   bands (ev):

  -107.8620-107.8611-107.8586-107.8580-107.8571-107.8560-107.8552-107.8547
  -107.8544-107.8543-107.8541-107.8540-107.8537-107.8530-107.8523-107.8521
  -107.8519-107.8507-107.8502-107.8483-107.8481-107.8479-107.8459-107.8459
  -107.8456-107.8449-107.8447-107.8414-107.8409-107.8388-107.8387-107.8370
  -107.8364-107.8364-107.8363-107.8355-107.6247-107.6234-107.6219-107.6211
  -107.6191-107.6191-107.6183-107.6168-107.6166-107.6024-107.6023-107.5998
  -107.5998-107.5973-107.5973-107.5972-107.5971-107.5971 -65.3128 -65.3122
   -65.3099 -65.3085 -65.3047 -65.3046 -65.3035 -65.3033 -65.3027 -65.3026
   -65.3018 -65.3016 -65.3014 -65.3010 -65.2974 -65.2910 -65.2906 -65.2905
   -65.2901 -65.2900 -65.2897 -65.2896 -65.2889 -65.2886 -65.2863 -65.2862
   -65.2858 -65.2856 -65.2788 -65.2786 -65.2776 -65.2774 -65.2771 -65.2768
   -65.2755 -65.2719 -65.2718 -65.2691 -65.2682 -65.2681 -65.2681 -65.2678
   -65.2676 -65.2668 -65.2651 -65.2650 -65.2646 -65.2643 -65.2641 -65.2639
   -65.2610 -65.2610 -65.2609 -65.2602 -65.2601 -65.2599 -65.2595 -65.2583
   -65.2553 -65.2550 -65.2546 -65.2544 -65.2543 -65.2538 -65.2536 -65.2536
   -65.2535 -65.2534 -65.2533 -65.2526 -65.2505 -65.2504 -65.2501 -65.2498
   -65.2495 -65.2490 -65.2474 -65.2472 -65.2464 -65.2462 -65.2462 -65.2459
   -65.2450 -65.2447 -65.2447 -65.2439 -65.2431 -65.2430 -65.2429 -65.2424
   -65.2424 -65.2419 -65.2419 -65.2391 -65.2389 -65.2388 -65.2387 -65.2375
   -65.2367 -65.2352 -65.2349 -65.2348 -65.2329 -65.2327 -65.2313 -65.2309
   -65.2242 -65.2238 -65.0930 -65.0856 -65.0856 -65.0847 -65.0843 -65.0739
   -65.0665 -65.0663 -65.0661 -65.0660 -65.0660 -65.0659 -65.0547 -65.0544
   -65.0536 -65.0534 -65.0474 -65.0473 -65.0464 -65.0460 -65.0451 -65.0429
   -65.0424 -65.0350 -65.0350 -65.0350 -65.0348 -65.0344 -65.0332 -65.0269
   -65.0266 -65.0265 -65.0239 -65.0238 -65.0148 -65.0147 -65.0006 -64.9992
   -64.9980 -64.9971 -64.9952 -64.9951 -64.9943 -64.9927 -64.9926 -64.9746
   -64.9745 -64.9721 -64.9721 -64.9698 -64.9698 -64.9697 -64.9696 -64.9696
   -12.5828  -9.8483  -9.8426  -6.2581  -6.2427  -4.2754  -3.2893  -3.2891
    -2.6912  -2.6908  -2.6795  -2.3445  -1.8099  -1.7840  -1.7578  -1.7572
    -1.7565  -1.7034  -1.2471  -1.2461  -0.7495  -0.7189  -0.5363  -0.5244
    -0.4240  -0.1440   0.0398   0.0403   0.0550   0.0600   0.0601   0.0603
     0.0603   0.1477   0.1612   0.2199   0.2264   0.2289   0.2331   0.2392
     0.2446   0.2580   0.2581   0.2582   0.2586   0.3138   0.3140   0.3142
     0.3143   0.4410   0.4784   0.4785   0.4789   0.4790   0.5178   0.5601
     0.6561   0.6561   0.6563   0.6563   0.6702   0.6927   0.6942   0.7099
     0.7099   0.7103   0.7103   0.8301   0.8301   0.8303   0.8303   0.8528
     0.8533   0.9411   0.9534   0.9535   0.9538   0.9538   0.9903   0.9904
     1.0347   1.0347   1.1052   1.1053   1.1056   1.1057   1.1664   1.1665
     1.1961   1.1965   1.2161   1.2163   1.2169   1.2171   1.2348   1.2348
     1.2693   1.2723   1.3221   1.3353   1.3358   1.3634   1.3639   1.3830
     1.3846   1.3927   1.3927   1.3931   1.3931   1.4495   1.4505   1.4542
     1.4544   1.4548   1.4549   1.5054   1.5082   1.5287   1.5290   1.5294
     1.5295   1.5387   1.5400   1.5400   1.5933   1.6003   1.6241   1.6260
     1.6265   1.6385   1.6432   1.6770   1.6773   1.6775   1.6777   1.6777
     1.6892   1.6928   1.7410   1.7413   1.7503   1.7509   1.7631   1.7633
     1.7976   1.7980   1.7981   1.7982   1.8204   1.8214   1.8224   1.8229
     1.8231   1.8506   1.8508   1.8519   1.8522   1.8835   1.8836   1.9044
     1.9140   1.9144   1.9742   1.9758   1.9825   1.9827   1.9829   1.9832
     1.9868   1.9868   1.9942   1.9962   2.0031   2.0033   2.0091   2.0271
     2.0298   2.0353   2.0363   2.0379   2.0381   2.0953   2.1096   2.1179
     2.1180   2.1194   2.1711   2.1995   2.2001   2.2003   2.2031   2.2068
     2.2074   2.2081   2.2142   2.2147   2.2264   2.2359   2.2410   2.2742
     2.2791   2.2794   2.2806   2.2990   2.2997   2.2998   2.2999   2.3023
     2.3055   2.3135   2.3256   2.3257   2.3339   2.3354   2.3372   2.4119
     2.4427   2.4560   2.4561   2.4838   2.4838   2.4844   2.4849   2.5159
     2.5166   2.5204   2.5329   2.5554   2.5564   2.5597   2.5599   2.5698
     2.5827   2.5934   2.5967   2.5968   2.5969   2.5970   2.6097   2.6301
     2.6303   2.6318   2.6342   2.6860   2.6860   2.6866   2.6870   2.6974
     2.6982   2.7229   2.7231   2.7523   2.7526   2.7571   2.7581   2.7841
     2.7841   2.8086   2.8115   2.8158   2.8324   2.8719   2.8736   2.8848
     2.8860   2.8937   2.8938   2.9089   2.9219   2.9221   2.9261   2.9264
     2.9280   2.9289   2.9447   2.9491   2.9491   2.9494   2.9496   2.9669
     2.9674   2.9676   2.9755   2.9795   2.9941   2.9965   3.0152   3.0154
     3.0158   3.0172   3.0233   3.0326   3.0529   3.0661   3.0663   3.0671
     3.0672   3.1714   3.1882   3.7038   3.7192   3.7221   3.7280   4.2333
     4.2778   4.2779   4.2781   4.2782   4.5476   4.5481   4.5488   4.5489
     4.8944   4.9006   4.9167   5.0204   5.0490   5.1026   5.1057   5.1071
     5.1092   5.3920   5.7310   5.9861   6.0086   6.0205   6.0753   6.0879
     6.0901   6.0957   6.1483   6.5475   6.5976   7.2320   7.3251   7.3990
     7.3995   7.4099   7.5991   7.9438   7.9818   8.1278   8.2591   8.3989
     8.5217   8.5246   8.5258   8.5436   8.8820   8.9118   8.9193   9.1692
     9.1732   9.1739   9.1828   9.2530   9.4624   9.5910   9.6751   9.7738
     9.7912   9.8342   9.8538   9.8669   9.9004  10.2596  10.3290  10.3516
    10.3870  10.4274  10.4688  10.4749  10.4942  10.8051  10.8654  11.0217
    11.1015  11.1823  11.2491  11.2626  11.3252  11.3885  11.4075  11.4283
    11.4751  11.5489  11.7063  12.0308  12.1015  12.1387  12.1904  12.2365
    12.2515  12.2949  12.4469  12.5044  12.7405  12.7978  12.8797  12.9500
    12.9610  13.0117  13.0293  13.0638  13.0819  13.1978  13.1988  13.2178
    13.2243  13.2732  13.3107  13.3158  13.4553  13.6010  13.6541  13.6544
    13.7152  13.8080

          k = 0.2500-0.7217 0.0000 ( 61343 PWs)   bands (ev):

  -107.8621-107.8605-107.8596-107.8578-107.8561-107.8560-107.8557-107.8550
  -107.8548-107.8542-107.8540-107.8537-107.8535-107.8528-107.8525-107.8521
  -107.8518-107.8509-107.8496-107.8492-107.8482-107.8469-107.8463-107.8458
  -107.8456-107.8449-107.8447-107.8416-107.8403-107.8398-107.8377-107.8372
  -107.8367-107.8364-107.8362-107.8354-107.6248-107.6230-107.6225-107.6208
  -107.6191-107.6191-107.6184-107.6168-107.6166-107.6027-107.6013-107.6012
  -107.5984-107.5983-107.5973-107.5972-107.5971-107.5968 -65.3138 -65.3093
   -65.3088 -65.3080 -65.3076 -65.3067 -65.3064 -65.3050 -65.3034 -65.3018
   -65.3014 -65.3004 -65.2976 -65.2959 -65.2954 -65.2952 -65.2951 -65.2925
   -65.2897 -65.2889 -65.2888 -65.2887 -65.2884 -65.2870 -65.2867 -65.2858
   -65.2850 -65.2848 -65.2822 -65.2817 -65.2771 -65.2765 -65.2761 -65.2754
   -65.2729 -65.2727 -65.2720 -65.2717 -65.2714 -65.2687 -65.2681 -65.2678
   -65.2669 -65.2662 -65.2658 -65.2655 -65.2646 -65.2620 -65.2617 -65.2615
   -65.2613 -65.2612 -65.2610 -65.2599 -65.2596 -65.2593 -65.2589 -65.2577
   -65.2574 -65.2561 -65.2559 -65.2557 -65.2555 -65.2550 -65.2534 -65.2523
   -65.2521 -65.2520 -65.2517 -65.2513 -65.2508 -65.2504 -65.2502 -65.2500
   -65.2498 -65.2487 -65.2484 -65.2477 -65.2472 -65.2470 -65.2466 -65.2453
   -65.2449 -65.2443 -65.2442 -65.2441 -65.2439 -65.2438 -65.2437 -65.2435
   -65.2417 -65.2415 -65.2411 -65.2392 -65.2390 -65.2383 -65.2380 -65.2380
   -65.2372 -65.2370 -65.2349 -65.2339 -65.2338 -65.2329 -65.2293 -65.2274
   -65.2273 -65.2236 -65.0910 -65.0905 -65.0879 -65.0813 -65.0777 -65.0769
   -65.0717 -65.0716 -65.0688 -65.0622 -65.0583 -65.0582 -65.0580 -65.0561
   -65.0549 -65.0547 -65.0497 -65.0490 -65.0483 -65.0479 -65.0417 -65.0388
   -65.0371 -65.0371 -65.0367 -65.0359 -65.0359 -65.0330 -65.0302 -65.0301
   -65.0293 -65.0292 -65.0227 -65.0181 -65.0181 -65.0140 -65.0006 -64.9989
   -64.9984 -64.9969 -64.9952 -64.9951 -64.9943 -64.9927 -64.9925 -64.9749
   -64.9735 -64.9734 -64.9708 -64.9707 -64.9698 -64.9697 -64.9696 -64.9693
   -12.5828  -9.8469  -9.8440  -6.2542  -6.2466  -4.2756  -3.4948  -2.8896
    -2.6888  -2.6885  -2.6796  -2.3443  -2.1154  -2.1149  -1.9693  -1.7654
    -1.7254  -1.2596  -1.2555  -0.8921  -0.6779  -0.6777  -0.4788  -0.3274
    -0.3267  -0.2845  -0.2587  -0.0869  -0.0868  -0.0772   0.0871   0.0882
     0.1077   0.1079   0.1241   0.1738   0.1847   0.1858   0.1860   0.2034
     0.2255   0.3019   0.3054   0.3086   0.3086   0.3814   0.3859   0.4465
     0.4471   0.4587   0.4697   0.4973   0.4974   0.5001   0.5186   0.5196
     0.5861   0.5864   0.6124   0.6139   0.6442   0.6443   0.6696   0.6787
     0.6789   0.7465   0.7466   0.7737   0.7957   0.8068   0.8071   0.8819
     0.8825   0.9335   0.9530   0.9533   0.9818   0.9819   1.0397   1.0487
     1.0491   1.0645   1.0646   1.0785   1.1171   1.1444   1.1445   1.1871
     1.1874   1.2141   1.2191   1.2198   1.2212   1.2377   1.2378   1.2968
     1.2971   1.3002   1.3004   1.3038   1.3160   1.3331   1.3343   1.3471
     1.3478   1.3750   1.3763   1.3988   1.4000   1.4010   1.4201   1.4448
     1.4856   1.4935   1.4938   1.4940   1.4950   1.5238   1.5427   1.5462
     1.5474   1.5844   1.5848   1.5854   1.5884   1.5947   1.6177   1.6388
     1.6389   1.6554   1.6555   1.6809   1.6832   1.6930   1.6931   1.7042
     1.7050   1.7201   1.7203   1.7377   1.7379   1.7529   1.7612   1.7849
     1.7929   1.7978   1.8043   1.8213   1.8233   1.8237   1.8310   1.8390
     1.8399   1.8498   1.8499   1.8632   1.8646   1.8681   1.8688   1.8703
     1.8911   1.8969   1.9196   1.9335   1.9368   1.9434   1.9478   1.9488
     1.9565   1.9571   1.9572   1.9606   1.9656   1.9690   1.9718   1.9721
     2.0302   2.0315   2.0908   2.0911   2.1023   2.1053   2.1067   2.1098
     2.1338   2.1343   2.1377   2.1393   2.1590   2.1788   2.1823   2.1860
     2.2063   2.2109   2.2381   2.2491   2.2547   2.2712   2.2720   2.2744
     2.2753   2.2771   2.2793   2.2842   2.2844   2.2924   2.3125   2.3204
     2.3583   2.3611   2.3623   2.3657   2.3716   2.3749   2.3807   2.4052
     2.4100   2.4152   2.4290   2.4528   2.4540   2.4723   2.4787   2.4794
     2.4902   2.4930   2.5238   2.5321   2.5372   2.5380   2.5644   2.5652
     2.5868   2.5929   2.5936   2.6118   2.6132   2.6353   2.6360   2.6371
     2.6403   2.6435   2.6560   2.6561   2.6609   2.6674   2.6714   2.6890
     2.7254   2.7314   2.7318   2.7353   2.7824   2.7827   2.7934   2.7957
     2.8256   2.8380   2.8387   2.8445   2.8449   2.8586   2.8619   2.8889
     2.8898   2.8900   2.8994   2.8997   2.9106   2.9127   2.9139   2.9143
     2.9165   2.9233   2.9235   2.9245   2.9270   2.9414   2.9422   2.9567
     2.9574   2.9640   2.9680   2.9681   2.9796   2.9955   3.0003   3.0065
     3.0070   3.0240   3.0548   3.0550   3.0662   3.0874   3.0878   3.2426
     3.2481   3.3554   3.3555   3.4571   3.4575   3.5620   3.7816   3.7844
     4.1617   4.1751   4.2660   4.2663   4.2796   4.5418   4.6505   4.6579
     4.6738   4.6739   4.8030   5.1191   5.1467   5.1477   5.5920   5.6313
     5.6530   5.7043   5.8843   5.9020   5.9038   6.0336   6.0412   6.1248
     6.1985   6.5698   6.6472   6.6496   6.8217   6.8943   6.9682   7.0269
     7.0277   7.3015   7.3609   7.3694   7.5740   7.7697   7.8560   7.9362
     8.4452   8.4503   8.4696   8.5536   8.7241   9.0316   9.1059   9.1352
     9.2073   9.2988   9.3211   9.4501   9.4608   9.6312   9.6491   9.6715
     9.7839   9.8519  10.0105  10.1156  10.1496  10.3361  10.4006  10.4588
    10.5003  10.5815  10.6680  10.7821  10.8210  11.0447  11.1188  11.1575
    11.2460  11.2669  11.4254  11.4524  11.4579  11.5898  11.6196  11.6829
    11.6910  11.7832  11.8285  11.8426  11.9893  12.0837  12.1329  12.1637
    12.2668  12.3478  12.3798  12.4087  12.4707  12.4963  12.5590  12.6002
    12.6989  12.7143  12.8029  12.8947  12.9379  12.9670  13.1442  13.2485
    13.2608  13.2873  13.3662  13.4002  13.4669  13.5007  13.5287  13.6274
    13.6493  13.6815

          k =-0.2500 0.1443 0.0000 ( 61417 PWs)   bands (ev):

  -107.8631-107.8597-107.8584-107.8577-107.8572-107.8561-107.8557-107.8553
  -107.8548-107.8541-107.8540-107.8533-107.8532-107.8531-107.8527-107.8521
  -107.8519-107.8516-107.8489-107.8482-107.8479-107.8477-107.8464-107.8463
  -107.8458-107.8446-107.8446-107.8423-107.8397-107.8386-107.8385-107.8373
  -107.8372-107.8366-107.8359-107.8353-107.6254-107.6225-107.6218-107.6210
  -107.6194-107.6193-107.6184-107.6167-107.6166-107.6036-107.6006-107.5996
  -107.5996-107.5981-107.5981-107.5977-107.5966-107.5966 -65.3165 -65.3074
   -65.3068 -65.3056 -65.3046 -65.3045 -65.3039 -65.3037 -65.3008 -65.3007
   -65.2999 -65.2998 -65.2981 -65.2980 -65.2934 -65.2920 -65.2920 -65.2900
   -65.2894 -65.2883 -65.2881 -65.2881 -65.2879 -65.2876 -65.2856 -65.2856
   -65.2852 -65.2849 -65.2809 -65.2809 -65.2780 -65.2778 -65.2776 -65.2765
   -65.2764 -65.2757 -65.2751 -65.2750 -65.2730 -65.2729 -65.2705 -65.2705
   -65.2672 -65.2671 -65.2668 -65.2666 -65.2657 -65.2656 -65.2648 -65.2638
   -65.2635 -65.2625 -65.2621 -65.2610 -65.2608 -65.2606 -65.2598 -65.2592
   -65.2590 -65.2573 -65.2569 -65.2569 -65.2566 -65.2566 -65.2564 -65.2540
   -65.2539 -65.2518 -65.2517 -65.2510 -65.2510 -65.2495 -65.2494 -65.2492
   -65.2486 -65.2483 -65.2483 -65.2480 -65.2477 -65.2477 -65.2476 -65.2461
   -65.2460 -65.2443 -65.2441 -65.2436 -65.2430 -65.2424 -65.2422 -65.2419
   -65.2419 -65.2414 -65.2405 -65.2384 -65.2384 -65.2367 -65.2351 -65.2351
   -65.2351 -65.2342 -65.2338 -65.2315 -65.2315 -65.2307 -65.2282 -65.2276
   -65.2245 -65.2214 -65.0888 -65.0834 -65.0834 -65.0819 -65.0816 -65.0702
   -65.0700 -65.0697 -65.0645 -65.0643 -65.0642 -65.0641 -65.0630 -65.0629
   -65.0613 -65.0511 -65.0510 -65.0463 -65.0459 -65.0453 -65.0453 -65.0448
   -65.0424 -65.0419 -65.0418 -65.0379 -65.0339 -65.0308 -65.0270 -65.0269
   -65.0258 -65.0229 -65.0228 -65.0188 -65.0150 -65.0118 -65.0011 -64.9984
   -64.9979 -64.9970 -64.9953 -64.9953 -64.9943 -64.9927 -64.9926 -64.9757
   -64.9729 -64.9719 -64.9719 -64.9705 -64.9705 -64.9701 -64.9691 -64.9691
   -12.5836  -9.8446  -9.8420  -6.2552  -6.2469  -4.3023  -3.9149  -3.2989
    -2.7078  -2.3569  -2.3407  -2.3118  -1.7673  -1.7346  -1.6973  -1.6008
    -1.6005  -1.2437  -1.1173  -1.1165  -0.9636  -0.5452  -0.5446  -0.5172
    -0.4535  -0.4448  -0.3399  -0.3331  -0.2584  -0.2580  -0.1233  -0.0903
    -0.0854   0.0123   0.0165   0.0168   0.1884   0.1921   0.2112   0.2231
     0.2445   0.2887   0.2891   0.4723   0.4774   0.5075   0.5076   0.5333
     0.5436   0.5436   0.5673   0.5674   0.6137   0.6151   0.6167   0.6172
     0.6295   0.6296   0.6698   0.6698   0.7065   0.7065   0.7350   0.7350
     0.7428   0.7859   0.7863   0.8007   0.8007   0.8229   0.8231   0.8358
     0.8358   0.8692   0.8693   0.9105   0.9790   0.9790   0.9850   1.0092
     1.0092   1.0233   1.0236   1.0592   1.0593   1.0940   1.0966   1.0967
     1.1595   1.1595   1.1846   1.1859   1.2065   1.2066   1.2516   1.2518
     1.2684   1.2887   1.2946   1.2950   1.3229   1.3638   1.3641   1.3832
     1.3833   1.3904   1.4263   1.4282   1.4391   1.4633   1.4634   1.4708
     1.5030   1.5033   1.5320   1.5688   1.5818   1.5919   1.5920   1.6047
     1.6049   1.6050   1.6418   1.6437   1.6493   1.6615   1.6617   1.6771
     1.6819   1.6820   1.6991   1.7025   1.7120   1.7202   1.7323   1.7403
     1.7405   1.7494   1.7543   1.7549   1.7571   1.7742   1.7750   1.7784
     1.7785   1.7825   1.8026   1.8057   1.8155   1.8260   1.8279   1.8378
     1.8392   1.8501   1.8510   1.8856   1.8859   1.8969   1.8973   1.8980
     1.9125   1.9214   1.9216   1.9233   1.9247   1.9306   1.9375   1.9530
     1.9835   1.9845   1.9963   1.9997   2.0082   2.0084   2.0198   2.0309
     2.0323   2.0329   2.0383   2.0617   2.0618   2.0756   2.1052   2.1121
     2.1379   2.1383   2.1518   2.1542   2.1599   2.1600   2.2224   2.2386
     2.2393   2.2434   2.2655   2.2692   2.2760   2.2812   2.2864   2.2892
     2.3146   2.3218   2.3277   2.3301   2.3343   2.3358   2.3696   2.3703
     2.3961   2.4021   2.4048   2.4061   2.4135   2.4390   2.4435   2.4446
     2.4490   2.4529   2.4808   2.4918   2.4957   2.5023   2.5027   2.5201
     2.5243   2.5246   2.5413   2.5448   2.5450   2.5456   2.5544   2.5578
     2.5818   2.5917   2.6296   2.6336   2.6390   2.6670   2.6680   2.6763
     2.6793   2.6798   2.6806   2.6840   2.7038   2.7040   2.7064   2.7188
     2.7213   2.7236   2.7270   2.7313   2.7561   2.7726   2.7726   2.7768
     2.7864   2.7867   2.8073   2.8081   2.8144   2.8157   2.8596   2.8601
     2.8602   2.8697   2.8697   2.8731   2.8837   2.8847   2.8921   2.8952
     2.8953   2.8955   2.9027   2.9029   2.9048   2.9108   2.9191   2.9193
     2.9368   2.9494   2.9495   2.9502   2.9519   2.9573   2.9588   2.9590
     2.9810   2.9900   2.9972   3.0013   3.0017   3.0061   3.0190   3.0194
     3.0922   3.1089   3.1487   3.2433   3.2666   3.2667   3.3417   3.4271
     3.4272   3.6807   3.7331   3.7334   3.7372   3.7483   4.0458   4.2365
     4.4249   4.7078   4.7087   4.9189   5.0078   5.0174   5.0573   5.7934
     5.7936   6.0089   6.1620   6.1719   6.1919   6.1924   6.4416   6.6868
     6.7324   6.8694   6.8758   7.2607   7.3620   7.4248   7.4664   7.6923
     7.7265   7.7359   7.9188   7.9773   8.1861   8.1919   8.2668   8.3413
     8.3721   8.6613   8.6627   8.7674   8.8141   8.9246   9.2118   9.2133
     9.3088   9.3773   9.5641   9.6084   9.7608   9.8095   9.9159   9.9450
     9.9668   9.9685  10.0161  10.0797  10.2589  10.3627  10.3636  10.4722
    10.5000  10.5259  10.6009  10.6149  10.6982  10.7417  10.7452  10.8120
    10.9077  10.9130  10.9268  11.0716  11.0990  11.2132  11.4158  11.4359
    11.4542  11.4947  11.5175  11.5745  11.6597  11.7605  11.9041  12.0041
    12.0119  12.1466  12.2031  12.2883  12.3097  12.4067  12.4772  12.5139
    12.5286  12.5616  12.5969  12.6633  12.8093  12.8104  12.8361  12.8681
    12.9416  12.9854  13.0990  13.1172  13.1667  13.2035  13.2051  13.3112
    13.3950  13.4671

          k = 0.2500 0.1443 0.0000 ( 61417 PWs)   bands (ev):

  -107.8631-107.8597-107.8584-107.8577-107.8572-107.8561-107.8557-107.8553
  -107.8548-107.8541-107.8540-107.8533-107.8532-107.8531-107.8527-107.8521
  -107.8519-107.8516-107.8489-107.8482-107.8479-107.8477-107.8464-107.8463
  -107.8458-107.8446-107.8446-107.8423-107.8397-107.8386-107.8385-107.8373
  -107.8372-107.8366-107.8359-107.8353-107.6254-107.6225-107.6218-107.6210
  -107.6194-107.6193-107.6184-107.6167-107.6166-107.6036-107.6006-107.5996
  -107.5996-107.5981-107.5981-107.5977-107.5966-107.5966 -65.3165 -65.3074
   -65.3068 -65.3056 -65.3046 -65.3045 -65.3039 -65.3037 -65.3008 -65.3007
   -65.2999 -65.2998 -65.2981 -65.2980 -65.2934 -65.2920 -65.2920 -65.2900
   -65.2894 -65.2883 -65.2881 -65.2881 -65.2879 -65.2876 -65.2856 -65.2856
   -65.2852 -65.2849 -65.2809 -65.2809 -65.2780 -65.2778 -65.2776 -65.2765
   -65.2764 -65.2757 -65.2751 -65.2750 -65.2730 -65.2729 -65.2705 -65.2705
   -65.2672 -65.2671 -65.2668 -65.2666 -65.2657 -65.2656 -65.2648 -65.2638
   -65.2635 -65.2625 -65.2621 -65.2610 -65.2608 -65.2606 -65.2598 -65.2592
   -65.2590 -65.2573 -65.2569 -65.2569 -65.2566 -65.2566 -65.2564 -65.2540
   -65.2539 -65.2518 -65.2517 -65.2510 -65.2510 -65.2495 -65.2494 -65.2492
   -65.2486 -65.2483 -65.2483 -65.2480 -65.2477 -65.2477 -65.2476 -65.2461
   -65.2460 -65.2443 -65.2441 -65.2436 -65.2430 -65.2424 -65.2422 -65.2419
   -65.2419 -65.2414 -65.2405 -65.2384 -65.2384 -65.2367 -65.2351 -65.2351
   -65.2351 -65.2342 -65.2338 -65.2315 -65.2315 -65.2307 -65.2282 -65.2276
   -65.2245 -65.2214 -65.0888 -65.0834 -65.0834 -65.0819 -65.0816 -65.0702
   -65.0700 -65.0697 -65.0645 -65.0643 -65.0642 -65.0641 -65.0630 -65.0629
   -65.0613 -65.0511 -65.0510 -65.0463 -65.0459 -65.0453 -65.0453 -65.0448
   -65.0424 -65.0419 -65.0418 -65.0379 -65.0339 -65.0308 -65.0270 -65.0269
   -65.0258 -65.0229 -65.0228 -65.0188 -65.0150 -65.0118 -65.0011 -64.9984
   -64.9979 -64.9970 -64.9953 -64.9953 -64.9943 -64.9927 -64.9926 -64.9757
   -64.9729 -64.9719 -64.9719 -64.9705 -64.9705 -64.9701 -64.9691 -64.9691
   -12.5836  -9.8446  -9.8420  -6.2552  -6.2470  -4.3023  -3.9149  -3.2989
    -2.7078  -2.3569  -2.3407  -2.3118  -1.7673  -1.7347  -1.6972  -1.6008
    -1.6005  -1.2437  -1.1173  -1.1165  -0.9636  -0.5452  -0.5446  -0.5172
    -0.4535  -0.4448  -0.3399  -0.3331  -0.2584  -0.2580  -0.1233  -0.0903
    -0.0854   0.0123   0.0165   0.0168   0.1883   0.1921   0.2111   0.2231
     0.2446   0.2887   0.2891   0.4723   0.4774   0.5075   0.5076   0.5333
     0.5436   0.5436   0.5673   0.5674   0.6137   0.6151   0.6167   0.6172
     0.6295   0.6296   0.6698   0.6698   0.7064   0.7065   0.7350   0.7350
     0.7428   0.7859   0.7863   0.8007   0.8007   0.8229   0.8231   0.8358
     0.8358   0.8692   0.8693   0.9105   0.9790   0.9790   0.9850   1.0092
     1.0092   1.0233   1.0236   1.0592   1.0593   1.0940   1.0966   1.0967
     1.1595   1.1595   1.1846   1.1859   1.2065   1.2066   1.2516   1.2518
     1.2684   1.2887   1.2946   1.2950   1.3229   1.3638   1.3641   1.3832
     1.3833   1.3904   1.4263   1.4282   1.4391   1.4633   1.4634   1.4708
     1.5030   1.5033   1.5320   1.5688   1.5818   1.5919   1.5920   1.6047
     1.6049   1.6050   1.6418   1.6437   1.6493   1.6615   1.6617   1.6771
     1.6819   1.6820   1.6991   1.7025   1.7120   1.7202   1.7323   1.7403
     1.7405   1.7494   1.7543   1.7549   1.7571   1.7742   1.7750   1.7784
     1.7785   1.7825   1.8026   1.8057   1.8155   1.8260   1.8279   1.8378
     1.8392   1.8501   1.8510   1.8856   1.8859   1.8969   1.8973   1.8980
     1.9125   1.9214   1.9216   1.9233   1.9247   1.9306   1.9375   1.9530
     1.9835   1.9845   1.9963   1.9997   2.0082   2.0084   2.0198   2.0309
     2.0323   2.0329   2.0383   2.0617   2.0618   2.0756   2.1052   2.1121
     2.1379   2.1383   2.1518   2.1542   2.1599   2.1600   2.2224   2.2386
     2.2393   2.2434   2.2655   2.2692   2.2760   2.2812   2.2864   2.2893
     2.3146   2.3218   2.3277   2.3301   2.3343   2.3358   2.3696   2.3703
     2.3961   2.4021   2.4048   2.4061   2.4135   2.4390   2.4435   2.4446
     2.4490   2.4529   2.4808   2.4918   2.4957   2.5023   2.5027   2.5201
     2.5243   2.5246   2.5413   2.5448   2.5450   2.5456   2.5544   2.5578
     2.5818   2.5917   2.6296   2.6336   2.6390   2.6670   2.6680   2.6763
     2.6793   2.6798   2.6806   2.6840   2.7038   2.7040   2.7064   2.7188
     2.7213   2.7236   2.7270   2.7313   2.7561   2.7726   2.7726   2.7768
     2.7864   2.7867   2.8073   2.8081   2.8144   2.8157   2.8596   2.8601
     2.8602   2.8697   2.8697   2.8731   2.8837   2.8847   2.8921   2.8952
     2.8953   2.8955   2.9027   2.9029   2.9048   2.9108   2.9191   2.9193
     2.9368   2.9494   2.9495   2.9502   2.9519   2.9573   2.9588   2.9590
     2.9810   2.9900   2.9972   3.0013   3.0017   3.0061   3.0190   3.0194
     3.0922   3.1089   3.1487   3.2433   3.2666   3.2667   3.3417   3.4271
     3.4272   3.6807   3.7331   3.7334   3.7372   3.7483   4.0458   4.2365
     4.4249   4.7078   4.7087   4.9189   5.0078   5.0174   5.0573   5.7934
     5.7936   6.0089   6.1620   6.1719   6.1919   6.1924   6.4416   6.6868
     6.7324   6.8694   6.8758   7.2607   7.3619   7.4248   7.4664   7.6923
     7.7265   7.7359   7.9188   7.9773   8.1861   8.1919   8.2668   8.3413
     8.3721   8.6613   8.6627   8.7674   8.8141   8.9246   9.2118   9.2133
     9.3088   9.3773   9.5641   9.6084   9.7608   9.8095   9.9159   9.9450
     9.9668   9.9685  10.0161  10.0797  10.2589  10.3627  10.3636  10.4722
    10.5000  10.5259  10.6009  10.6149  10.6982  10.7417  10.7452  10.8120
    10.9077  10.9130  10.9268  11.0716  11.0990  11.2132  11.4158  11.4359
    11.4542  11.4947  11.5175  11.5745  11.6597  11.7605  11.9041  12.0041
    12.0120  12.1466  12.2031  12.2883  12.3097  12.4067  12.4773  12.5139
    12.5286  12.5616  12.5969  12.6633  12.8093  12.8104  12.8361  12.8681
    12.9416  12.9854  13.0990  13.1172  13.1667  13.2035  13.2051  13.3112
    13.3950  13.4671

          k = 0.5000-0.2887 0.0000 ( 61408 PWs)   bands (ev):

  -107.8620-107.8611-107.8586-107.8580-107.8571-107.8560-107.8552-107.8547
  -107.8544-107.8543-107.8541-107.8539-107.8537-107.8530-107.8523-107.8521
  -107.8519-107.8507-107.8502-107.8483-107.8481-107.8479-107.8459-107.8459
  -107.8456-107.8449-107.8447-107.8414-107.8409-107.8388-107.8387-107.8370
  -107.8364-107.8364-107.8363-107.8355-107.6247-107.6234-107.6219-107.6211
  -107.6191-107.6191-107.6183-107.6168-107.6166-107.6024-107.6023-107.5998
  -107.5998-107.5973-107.5973-107.5972-107.5971-107.5971 -65.3128 -65.3122
   -65.3099 -65.3085 -65.3047 -65.3046 -65.3035 -65.3033 -65.3027 -65.3026
   -65.3018 -65.3016 -65.3015 -65.3010 -65.2974 -65.2910 -65.2906 -65.2905
   -65.2901 -65.2900 -65.2897 -65.2896 -65.2889 -65.2886 -65.2863 -65.2862
   -65.2858 -65.2856 -65.2788 -65.2786 -65.2776 -65.2774 -65.2771 -65.2768
   -65.2755 -65.2719 -65.2718 -65.2691 -65.2682 -65.2681 -65.2681 -65.2678
   -65.2676 -65.2668 -65.2651 -65.2650 -65.2646 -65.2643 -65.2641 -65.2639
   -65.2610 -65.2610 -65.2609 -65.2602 -65.2601 -65.2599 -65.2595 -65.2583
   -65.2553 -65.2550 -65.2546 -65.2544 -65.2543 -65.2538 -65.2536 -65.2536
   -65.2535 -65.2534 -65.2533 -65.2526 -65.2505 -65.2504 -65.2501 -65.2498
   -65.2495 -65.2490 -65.2474 -65.2472 -65.2464 -65.2462 -65.2462 -65.2459
   -65.2450 -65.2447 -65.2447 -65.2439 -65.2431 -65.2430 -65.2429 -65.2424
   -65.2424 -65.2419 -65.2419 -65.2391 -65.2389 -65.2388 -65.2387 -65.2375
   -65.2367 -65.2352 -65.2349 -65.2348 -65.2329 -65.2327 -65.2313 -65.2309
   -65.2242 -65.2238 -65.0930 -65.0856 -65.0856 -65.0847 -65.0843 -65.0739
   -65.0665 -65.0663 -65.0661 -65.0660 -65.0660 -65.0659 -65.0547 -65.0544
   -65.0536 -65.0534 -65.0474 -65.0473 -65.0464 -65.0460 -65.0451 -65.0429
   -65.0424 -65.0350 -65.0350 -65.0350 -65.0348 -65.0344 -65.0332 -65.0269
   -65.0266 -65.0265 -65.0239 -65.0238 -65.0148 -65.0147 -65.0006 -64.9992
   -64.9979 -64.9971 -64.9952 -64.9951 -64.9943 -64.9927 -64.9925 -64.9746
   -64.9745 -64.9721 -64.9721 -64.9698 -64.9698 -64.9697 -64.9696 -64.9696
   -12.5828  -9.8481  -9.8428  -6.2585  -6.2423  -4.2754  -3.2893  -3.2891
    -2.6912  -2.6908  -2.6795  -2.3445  -1.8099  -1.7840  -1.7578  -1.7572
    -1.7565  -1.7034  -1.2471  -1.2461  -0.7495  -0.7189  -0.5363  -0.5244
    -0.4240  -0.1440   0.0398   0.0403   0.0550   0.0600   0.0601   0.0603
     0.0603   0.1477   0.1614   0.2199   0.2264   0.2289   0.2331   0.2392
     0.2444   0.2580   0.2581   0.2582   0.2585   0.3138   0.3140   0.3142
     0.3143   0.4410   0.4784   0.4785   0.4789   0.4790   0.5178   0.5601
     0.6561   0.6561   0.6563   0.6563   0.6702   0.6927   0.6942   0.7099
     0.7099   0.7103   0.7103   0.8301   0.8301   0.8303   0.8303   0.8528
     0.8533   0.9411   0.9534   0.9535   0.9538   0.9538   0.9903   0.9904
     1.0347   1.0347   1.1052   1.1053   1.1056   1.1057   1.1664   1.1665
     1.1961   1.1965   1.2161   1.2163   1.2169   1.2171   1.2348   1.2348
     1.2693   1.2723   1.3221   1.3353   1.3358   1.3634   1.3639   1.3830
     1.3846   1.3927   1.3927   1.3931   1.3931   1.4495   1.4505   1.4542
     1.4544   1.4548   1.4549   1.5054   1.5082   1.5287   1.5290   1.5294
     1.5295   1.5387   1.5400   1.5400   1.5933   1.6003   1.6241   1.6260
     1.6265   1.6385   1.6432   1.6770   1.6773   1.6775   1.6777   1.6777
     1.6892   1.6928   1.7410   1.7413   1.7503   1.7509   1.7631   1.7633
     1.7976   1.7980   1.7981   1.7983   1.8205   1.8214   1.8224   1.8229
     1.8231   1.8506   1.8508   1.8519   1.8522   1.8835   1.8836   1.9044
     1.9140   1.9144   1.9742   1.9758   1.9825   1.9827   1.9829   1.9832
     1.9868   1.9868   1.9942   1.9962   2.0031   2.0033   2.0091   2.0271
     2.0298   2.0353   2.0363   2.0379   2.0381   2.0953   2.1096   2.1179
     2.1180   2.1195   2.1711   2.1995   2.2001   2.2003   2.2031   2.2068
     2.2074   2.2081   2.2142   2.2147   2.2264   2.2359   2.2410   2.2742
     2.2791   2.2794   2.2806   2.2990   2.2997   2.2998   2.2999   2.3023
     2.3055   2.3134   2.3256   2.3257   2.3339   2.3354   2.3372   2.4119
     2.4427   2.4560   2.4561   2.4838   2.4838   2.4844   2.4849   2.5159
     2.5166   2.5204   2.5329   2.5554   2.5564   2.5597   2.5599   2.5698
     2.5827   2.5934   2.5967   2.5968   2.5969   2.5970   2.6097   2.6301
     2.6303   2.6318   2.6342   2.6860   2.6860   2.6866   2.6870   2.6974
     2.6982   2.7229   2.7231   2.7523   2.7526   2.7571   2.7581   2.7841
     2.7841   2.8086   2.8115   2.8158   2.8324   2.8719   2.8736   2.8848
     2.8860   2.8937   2.8938   2.9089   2.9219   2.9221   2.9261   2.9264
     2.9280   2.9289   2.9447   2.9491   2.9491   2.9494   2.9496   2.9669
     2.9674   2.9676   2.9755   2.9795   2.9941   2.9965   3.0152   3.0154
     3.0158   3.0172   3.0233   3.0326   3.0529   3.0661   3.0663   3.0670
     3.0672   3.1714   3.1882   3.7037   3.7192   3.7221   3.7280   4.2333
     4.2778   4.2779   4.2781   4.2782   4.5476   4.5481   4.5488   4.5489
     4.8944   4.9006   4.9167   5.0204   5.0490   5.1026   5.1057   5.1071
     5.1092   5.3920   5.7310   5.9861   6.0086   6.0205   6.0753   6.0879
     6.0901   6.0957   6.1483   6.5475   6.5976   7.2321   7.3250   7.3990
     7.3995   7.4099   7.5992   7.9439   7.9817   8.1278   8.2591   8.3988
     8.5217   8.5246   8.5258   8.5436   8.8820   8.9118   8.9193   9.1692
     9.1732   9.1739   9.1828   9.2529   9.4624   9.5910   9.6752   9.7739
     9.7912   9.8342   9.8538   9.8669   9.9004  10.2596  10.3290  10.3516
    10.3870  10.4274  10.4688  10.4749  10.4942  10.8051  10.8653  11.0218
    11.1015  11.1822  11.2491  11.2626  11.3252  11.3886  11.4075  11.4283
    11.4751  11.5489  11.7063  12.0307  12.1015  12.1387  12.1903  12.2365
    12.2515  12.2950  12.4470  12.5044  12.7404  12.7979  12.8797  12.9500
    12.9610  13.0117  13.0293  13.0638  13.0819  13.1977  13.1988  13.2178
    13.2243  13.2732  13.3105  13.3157  13.4553  13.6010  13.6541  13.6543
    13.7152  13.8080

          k =-0.5000-0.2887 0.0000 ( 61408 PWs)   bands (ev):

  -107.8620-107.8611-107.8586-107.8580-107.8571-107.8560-107.8552-107.8547
  -107.8544-107.8543-107.8541-107.8539-107.8537-107.8530-107.8523-107.8521
  -107.8519-107.8507-107.8502-107.8483-107.8481-107.8479-107.8459-107.8459
  -107.8456-107.8449-107.8447-107.8414-107.8409-107.8388-107.8387-107.8370
  -107.8364-107.8364-107.8363-107.8355-107.6247-107.6234-107.6219-107.6211
  -107.6191-107.6191-107.6183-107.6168-107.6166-107.6024-107.6023-107.5998
  -107.5998-107.5973-107.5973-107.5972-107.5971-107.5971 -65.3128 -65.3122
   -65.3099 -65.3085 -65.3047 -65.3046 -65.3035 -65.3033 -65.3027 -65.3026
   -65.3018 -65.3016 -65.3015 -65.3010 -65.2974 -65.2910 -65.2906 -65.2905
   -65.2901 -65.2900 -65.2897 -65.2896 -65.2889 -65.2886 -65.2863 -65.2862
   -65.2858 -65.2856 -65.2788 -65.2786 -65.2776 -65.2774 -65.2771 -65.2768
   -65.2755 -65.2719 -65.2718 -65.2691 -65.2682 -65.2681 -65.2681 -65.2678
   -65.2676 -65.2668 -65.2651 -65.2650 -65.2646 -65.2643 -65.2641 -65.2639
   -65.2610 -65.2610 -65.2609 -65.2602 -65.2601 -65.2599 -65.2595 -65.2583
   -65.2553 -65.2550 -65.2546 -65.2544 -65.2543 -65.2538 -65.2536 -65.2536
   -65.2535 -65.2534 -65.2533 -65.2526 -65.2505 -65.2504 -65.2501 -65.2498
   -65.2495 -65.2490 -65.2474 -65.2472 -65.2464 -65.2462 -65.2462 -65.2459
   -65.2450 -65.2447 -65.2447 -65.2439 -65.2431 -65.2430 -65.2429 -65.2424
   -65.2424 -65.2419 -65.2419 -65.2391 -65.2389 -65.2388 -65.2387 -65.2375
   -65.2367 -65.2352 -65.2349 -65.2348 -65.2329 -65.2327 -65.2313 -65.2309
   -65.2242 -65.2238 -65.0930 -65.0856 -65.0856 -65.0847 -65.0843 -65.0739
   -65.0665 -65.0663 -65.0661 -65.0660 -65.0660 -65.0659 -65.0547 -65.0544
   -65.0536 -65.0534 -65.0474 -65.0473 -65.0464 -65.0460 -65.0451 -65.0429
   -65.0424 -65.0350 -65.0350 -65.0350 -65.0348 -65.0344 -65.0332 -65.0269
   -65.0266 -65.0265 -65.0239 -65.0238 -65.0148 -65.0147 -65.0006 -64.9992
   -64.9979 -64.9971 -64.9952 -64.9951 -64.9943 -64.9927 -64.9925 -64.9746
   -64.9745 -64.9721 -64.9721 -64.9698 -64.9698 -64.9697 -64.9696 -64.9696
   -12.5828  -9.8482  -9.8427  -6.2584  -6.2423  -4.2754  -3.2893  -3.2891
    -2.6912  -2.6908  -2.6795  -2.3445  -1.8099  -1.7840  -1.7578  -1.7572
    -1.7565  -1.7034  -1.2471  -1.2461  -0.7495  -0.7189  -0.5363  -0.5244
    -0.4240  -0.1440   0.0398   0.0403   0.0550   0.0600   0.0601   0.0603
     0.0603   0.1477   0.1613   0.2199   0.2264   0.2289   0.2331   0.2392
     0.2445   0.2580   0.2581   0.2582   0.2585   0.3138   0.3140   0.3142
     0.3143   0.4410   0.4784   0.4785   0.4789   0.4790   0.5178   0.5601
     0.6561   0.6561   0.6563   0.6563   0.6702   0.6927   0.6942   0.7099
     0.7099   0.7103   0.7103   0.8301   0.8301   0.8303   0.8303   0.8528
     0.8533   0.9411   0.9534   0.9535   0.9538   0.9538   0.9903   0.9904
     1.0347   1.0347   1.1052   1.1053   1.1056   1.1057   1.1664   1.1665
     1.1961   1.1965   1.2161   1.2163   1.2169   1.2171   1.2348   1.2348
     1.2693   1.2723   1.3221   1.3353   1.3358   1.3634   1.3639   1.3830
     1.3846   1.3927   1.3927   1.3931   1.3931   1.4495   1.4505   1.4542
     1.4544   1.4548   1.4549   1.5054   1.5082   1.5287   1.5290   1.5294
     1.5295   1.5387   1.5400   1.5400   1.5933   1.6003   1.6241   1.6260
     1.6265   1.6385   1.6432   1.6770   1.6773   1.6775   1.6777   1.6777
     1.6892   1.6928   1.7410   1.7413   1.7503   1.7509   1.7631   1.7633
     1.7976   1.7980   1.7981   1.7983   1.8205   1.8214   1.8224   1.8229
     1.8231   1.8506   1.8508   1.8519   1.8522   1.8835   1.8836   1.9044
     1.9140   1.9144   1.9742   1.9758   1.9825   1.9827   1.9829   1.9832
     1.9868   1.9868   1.9942   1.9962   2.0031   2.0033   2.0091   2.0271
     2.0298   2.0353   2.0363   2.0379   2.0381   2.0953   2.1096   2.1179
     2.1180   2.1194   2.1711   2.1995   2.2001   2.2003   2.2031   2.2068
     2.2074   2.2081   2.2142   2.2147   2.2264   2.2359   2.2410   2.2742
     2.2791   2.2794   2.2806   2.2990   2.2997   2.2998   2.2999   2.3023
     2.3055   2.3134   2.3256   2.3257   2.3339   2.3354   2.3372   2.4119
     2.4427   2.4560   2.4561   2.4838   2.4838   2.4844   2.4849   2.5159
     2.5166   2.5204   2.5329   2.5554   2.5564   2.5597   2.5599   2.5698
     2.5827   2.5934   2.5967   2.5968   2.5969   2.5970   2.6097   2.6301
     2.6303   2.6318   2.6342   2.6860   2.6860   2.6866   2.6870   2.6974
     2.6982   2.7229   2.7231   2.7523   2.7526   2.7571   2.7581   2.7841
     2.7841   2.8086   2.8115   2.8158   2.8324   2.8719   2.8736   2.8848
     2.8860   2.8937   2.8938   2.9089   2.9219   2.9221   2.9261   2.9264
     2.9280   2.9289   2.9447   2.9491   2.9491   2.9494   2.9496   2.9669
     2.9674   2.9676   2.9755   2.9795   2.9941   2.9965   3.0152   3.0154
     3.0158   3.0172   3.0233   3.0326   3.0529   3.0661   3.0663   3.0670
     3.0672   3.1714   3.1882   3.7037   3.7192   3.7221   3.7280   4.2333
     4.2778   4.2779   4.2781   4.2782   4.5476   4.5481   4.5488   4.5489
     4.8944   4.9006   4.9167   5.0204   5.0490   5.1026   5.1057   5.1071
     5.1092   5.3920   5.7310   5.9861   6.0086   6.0205   6.0753   6.0879
     6.0901   6.0957   6.1483   6.5475   6.5976   7.2321   7.3250   7.3990
     7.3995   7.4099   7.5992   7.9439   7.9817   8.1278   8.2591   8.3988
     8.5217   8.5246   8.5258   8.5436   8.8820   8.9118   8.9193   9.1692
     9.1732   9.1739   9.1828   9.2529   9.4624   9.5910   9.6752   9.7739
     9.7912   9.8342   9.8538   9.8669   9.9004  10.2596  10.3290  10.3516
    10.3870  10.4274  10.4688  10.4749  10.4942  10.8051  10.8654  11.0217
    11.1015  11.1822  11.2491  11.2625  11.3252  11.3886  11.4075  11.4283
    11.4751  11.5489  11.7063  12.0308  12.1015  12.1387  12.1904  12.2365
    12.2515  12.2950  12.4470  12.5044  12.7404  12.7980  12.8797  12.9500
    12.9610  13.0117  13.0293  13.0638  13.0819  13.1977  13.1988  13.2178
    13.2243  13.2732  13.3105  13.3157  13.4553  13.6010  13.6541  13.6544
    13.7152  13.8080

          k =-0.2500-0.7217 0.0000 ( 61343 PWs)   bands (ev):

  -107.8621-107.8605-107.8596-107.8578-107.8561-107.8560-107.8557-107.8550
  -107.8548-107.8542-107.8540-107.8537-107.8535-107.8528-107.8525-107.8521
  -107.8518-107.8509-107.8496-107.8492-107.8482-107.8469-107.8463-107.8458
  -107.8456-107.8449-107.8447-107.8416-107.8403-107.8398-107.8377-107.8372
  -107.8367-107.8364-107.8362-107.8354-107.6248-107.6230-107.6225-107.6208
  -107.6191-107.6191-107.6184-107.6168-107.6166-107.6027-107.6013-107.6012
  -107.5984-107.5983-107.5973-107.5972-107.5971-107.5968 -65.3138 -65.3093
   -65.3088 -65.3080 -65.3076 -65.3067 -65.3064 -65.3050 -65.3034 -65.3018
   -65.3014 -65.3004 -65.2976 -65.2959 -65.2954 -65.2952 -65.2951 -65.2925
   -65.2897 -65.2889 -65.2888 -65.2887 -65.2884 -65.2870 -65.2867 -65.2858
   -65.2850 -65.2848 -65.2822 -65.2817 -65.2771 -65.2765 -65.2761 -65.2754
   -65.2729 -65.2727 -65.2720 -65.2717 -65.2714 -65.2687 -65.2681 -65.2678
   -65.2669 -65.2662 -65.2658 -65.2655 -65.2646 -65.2620 -65.2617 -65.2615
   -65.2613 -65.2612 -65.2610 -65.2599 -65.2596 -65.2593 -65.2589 -65.2577
   -65.2574 -65.2561 -65.2559 -65.2557 -65.2555 -65.2550 -65.2534 -65.2523
   -65.2521 -65.2520 -65.2517 -65.2513 -65.2508 -65.2504 -65.2502 -65.2500
   -65.2498 -65.2487 -65.2484 -65.2477 -65.2472 -65.2470 -65.2466 -65.2453
   -65.2449 -65.2443 -65.2442 -65.2441 -65.2439 -65.2438 -65.2437 -65.2435
   -65.2417 -65.2415 -65.2411 -65.2392 -65.2390 -65.2383 -65.2380 -65.2380
   -65.2372 -65.2370 -65.2349 -65.2339 -65.2338 -65.2329 -65.2293 -65.2274
   -65.2273 -65.2236 -65.0910 -65.0905 -65.0879 -65.0813 -65.0777 -65.0769
   -65.0717 -65.0716 -65.0688 -65.0622 -65.0583 -65.0582 -65.0580 -65.0561
   -65.0549 -65.0547 -65.0497 -65.0490 -65.0483 -65.0479 -65.0417 -65.0388
   -65.0371 -65.0371 -65.0367 -65.0359 -65.0359 -65.0330 -65.0302 -65.0301
   -65.0293 -65.0292 -65.0227 -65.0181 -65.0181 -65.0140 -65.0006 -64.9989
   -64.9984 -64.9969 -64.9952 -64.9951 -64.9943 -64.9927 -64.9925 -64.9749
   -64.9735 -64.9734 -64.9708 -64.9707 -64.9698 -64.9697 -64.9696 -64.9693
   -12.5828  -9.8469  -9.8440  -6.2543  -6.2465  -4.2756  -3.4948  -2.8896
    -2.6888  -2.6885  -2.6796  -2.3443  -2.1154  -2.1149  -1.9693  -1.7653
    -1.7255  -1.2596  -1.2555  -0.8921  -0.6779  -0.6777  -0.4788  -0.3274
    -0.3267  -0.2845  -0.2587  -0.0869  -0.0868  -0.0772   0.0871   0.0882
     0.1077   0.1079   0.1241   0.1738   0.1848   0.1858   0.1860   0.2034
     0.2254   0.3019   0.3054   0.3086   0.3086   0.3814   0.3859   0.4465
     0.4471   0.4587   0.4697   0.4973   0.4974   0.5001   0.5186   0.5196
     0.5861   0.5864   0.6124   0.6139   0.6442   0.6443   0.6696   0.6787
     0.6789   0.7465   0.7466   0.7737   0.7957   0.8068   0.8071   0.8819
     0.8825   0.9335   0.9530   0.9533   0.9818   0.9819   1.0397   1.0487
     1.0491   1.0645   1.0646   1.0785   1.1171   1.1444   1.1445   1.1871
     1.1874   1.2141   1.2191   1.2198   1.2212   1.2377   1.2378   1.2968
     1.2971   1.3002   1.3004   1.3038   1.3160   1.3331   1.3343   1.3471
     1.3478   1.3750   1.3763   1.3988   1.4000   1.4010   1.4201   1.4448
     1.4856   1.4935   1.4938   1.4940   1.4950   1.5238   1.5427   1.5462
     1.5474   1.5844   1.5848   1.5854   1.5884   1.5947   1.6177   1.6388
     1.6389   1.6554   1.6555   1.6809   1.6832   1.6930   1.6931   1.7042
     1.7050   1.7201   1.7203   1.7377   1.7379   1.7529   1.7612   1.7849
     1.7929   1.7978   1.8043   1.8213   1.8233   1.8237   1.8310   1.8390
     1.8399   1.8498   1.8499   1.8632   1.8646   1.8681   1.8688   1.8703
     1.8911   1.8969   1.9196   1.9335   1.9368   1.9434   1.9478   1.9488
     1.9565   1.9571   1.9572   1.9606   1.9656   1.9690   1.9718   1.9721
     2.0302   2.0315   2.0908   2.0911   2.1023   2.1053   2.1067   2.1098
     2.1338   2.1343   2.1377   2.1393   2.1590   2.1788   2.1823   2.1860
     2.2063   2.2109   2.2381   2.2491   2.2547   2.2712   2.2720   2.2744
     2.2753   2.2771   2.2793   2.2842   2.2844   2.2924   2.3125   2.3204
     2.3583   2.3611   2.3623   2.3657   2.3716   2.3749   2.3807   2.4052
     2.4100   2.4152   2.4290   2.4528   2.4540   2.4723   2.4787   2.4794
     2.4902   2.4930   2.5238   2.5321   2.5372   2.5380   2.5644   2.5652
     2.5868   2.5929   2.5936   2.6118   2.6132   2.6353   2.6360   2.6371
     2.6403   2.6435   2.6560   2.6561   2.6609   2.6674   2.6714   2.6890
     2.7254   2.7314   2.7318   2.7353   2.7824   2.7827   2.7934   2.7957
     2.8256   2.8380   2.8387   2.8445   2.8449   2.8586   2.8619   2.8889
     2.8898   2.8900   2.8994   2.8997   2.9106   2.9127   2.9139   2.9143
     2.9165   2.9233   2.9235   2.9245   2.9270   2.9414   2.9422   2.9567
     2.9574   2.9640   2.9680   2.9681   2.9796   2.9955   3.0003   3.0065
     3.0070   3.0240   3.0548   3.0550   3.0662   3.0874   3.0878   3.2426
     3.2481   3.3554   3.3555   3.4571   3.4575   3.5620   3.7816   3.7844
     4.1617   4.1751   4.2660   4.2663   4.2796   4.5418   4.6505   4.6579
     4.6738   4.6739   4.8030   5.1191   5.1467   5.1477   5.5920   5.6313
     5.6530   5.7043   5.8843   5.9020   5.9038   6.0336   6.0412   6.1248
     6.1985   6.5698   6.6472   6.6496   6.8217   6.8943   6.9682   7.0269
     7.0277   7.3015   7.3609   7.3694   7.5740   7.7697   7.8560   7.9362
     8.4452   8.4503   8.4696   8.5536   8.7241   9.0316   9.1059   9.1352
     9.2073   9.2988   9.3211   9.4501   9.4608   9.6312   9.6491   9.6715
     9.7839   9.8519  10.0105  10.1156  10.1496  10.3361  10.4006  10.4588
    10.5003  10.5815  10.6680  10.7821  10.8210  11.0447  11.1188  11.1575
    11.2460  11.2669  11.4254  11.4524  11.4579  11.5897  11.6196  11.6829
    11.6910  11.7832  11.8285  11.8426  11.9893  12.0837  12.1329  12.1637
    12.2668  12.3478  12.3798  12.4087  12.4707  12.4963  12.5590  12.6001
    12.6989  12.7143  12.8029  12.8947  12.9379  12.9670  13.1442  13.2485
    13.2609  13.2873  13.3662  13.4002  13.4669  13.5006  13.5288  13.6274
    13.6493  13.6815

          k =-0.5000-0.5774 0.0000 ( 61343 PWs)   bands (ev):

  -107.8621-107.8605-107.8596-107.8578-107.8561-107.8560-107.8557-107.8550
  -107.8548-107.8542-107.8540-107.8537-107.8535-107.8528-107.8526-107.8521
  -107.8518-107.8509-107.8496-107.8492-107.8482-107.8469-107.8463-107.8458
  -107.8456-107.8449-107.8447-107.8416-107.8403-107.8398-107.8377-107.8372
  -107.8367-107.8364-107.8362-107.8354-107.6248-107.6230-107.6224-107.6208
  -107.6191-107.6191-107.6184-107.6168-107.6166-107.6027-107.6013-107.6012
  -107.5984-107.5983-107.5973-107.5972-107.5971-107.5968 -65.3138 -65.3093
   -65.3088 -65.3080 -65.3076 -65.3067 -65.3064 -65.3050 -65.3034 -65.3018
   -65.3015 -65.3004 -65.2976 -65.2959 -65.2954 -65.2952 -65.2951 -65.2925
   -65.2897 -65.2889 -65.2888 -65.2887 -65.2884 -65.2870 -65.2867 -65.2858
   -65.2850 -65.2848 -65.2822 -65.2817 -65.2771 -65.2765 -65.2761 -65.2754
   -65.2729 -65.2727 -65.2720 -65.2717 -65.2714 -65.2687 -65.2681 -65.2678
   -65.2669 -65.2662 -65.2658 -65.2655 -65.2646 -65.2620 -65.2617 -65.2615
   -65.2613 -65.2612 -65.2610 -65.2599 -65.2596 -65.2593 -65.2589 -65.2577
   -65.2574 -65.2561 -65.2559 -65.2557 -65.2555 -65.2550 -65.2534 -65.2523
   -65.2521 -65.2520 -65.2517 -65.2513 -65.2508 -65.2504 -65.2502 -65.2500
   -65.2498 -65.2487 -65.2484 -65.2477 -65.2472 -65.2470 -65.2466 -65.2453
   -65.2449 -65.2443 -65.2442 -65.2441 -65.2439 -65.2438 -65.2437 -65.2435
   -65.2417 -65.2415 -65.2411 -65.2392 -65.2390 -65.2383 -65.2380 -65.2380
   -65.2372 -65.2370 -65.2349 -65.2339 -65.2338 -65.2329 -65.2293 -65.2274
   -65.2273 -65.2236 -65.0910 -65.0905 -65.0879 -65.0813 -65.0777 -65.0769
   -65.0717 -65.0716 -65.0688 -65.0622 -65.0583 -65.0582 -65.0580 -65.0561
   -65.0549 -65.0547 -65.0497 -65.0490 -65.0483 -65.0479 -65.0417 -65.0388
   -65.0371 -65.0371 -65.0367 -65.0359 -65.0359 -65.0330 -65.0302 -65.0301
   -65.0293 -65.0292 -65.0227 -65.0181 -65.0181 -65.0140 -65.0006 -64.9989
   -64.9984 -64.9969 -64.9952 -64.9951 -64.9943 -64.9927 -64.9925 -64.9749
   -64.9735 -64.9734 -64.9708 -64.9707 -64.9698 -64.9697 -64.9696 -64.9693
   -12.5828  -9.8467  -9.8442  -6.2546  -6.2462  -4.2756  -3.4948  -2.8896
    -2.6888  -2.6885  -2.6796  -2.3443  -2.1154  -2.1149  -1.9693  -1.7653
    -1.7255  -1.2596  -1.2555  -0.8921  -0.6779  -0.6777  -0.4788  -0.3274
    -0.3267  -0.2845  -0.2587  -0.0869  -0.0868  -0.0772   0.0871   0.0882
     0.1077   0.1079   0.1241   0.1738   0.1849   0.1858   0.1860   0.2034
     0.2253   0.3019   0.3054   0.3086   0.3086   0.3814   0.3859   0.4465
     0.4471   0.4587   0.4697   0.4973   0.4974   0.5001   0.5186   0.5196
     0.5861   0.5864   0.6124   0.6139   0.6442   0.6443   0.6696   0.6787
     0.6789   0.7465   0.7466   0.7737   0.7957   0.8069   0.8071   0.8819
     0.8825   0.9335   0.9530   0.9533   0.9818   0.9819   1.0397   1.0487
     1.0491   1.0645   1.0646   1.0785   1.1171   1.1444   1.1445   1.1871
     1.1874   1.2141   1.2191   1.2198   1.2212   1.2377   1.2378   1.2968
     1.2971   1.3002   1.3004   1.3038   1.3160   1.3331   1.3343   1.3471
     1.3478   1.3750   1.3763   1.3988   1.4000   1.4010   1.4201   1.4448
     1.4856   1.4935   1.4938   1.4940   1.4950   1.5238   1.5427   1.5462
     1.5474   1.5844   1.5848   1.5854   1.5884   1.5947   1.6177   1.6388
     1.6389   1.6554   1.6555   1.6809   1.6832   1.6930   1.6931   1.7042
     1.7050   1.7201   1.7203   1.7377   1.7379   1.7529   1.7612   1.7849
     1.7929   1.7977   1.8043   1.8213   1.8233   1.8237   1.8310   1.8390
     1.8399   1.8498   1.8499   1.8632   1.8646   1.8681   1.8688   1.8703
     1.8911   1.8969   1.9196   1.9335   1.9368   1.9434   1.9478   1.9488
     1.9565   1.9571   1.9572   1.9606   1.9656   1.9690   1.9718   1.9721
     2.0303   2.0315   2.0908   2.0911   2.1023   2.1053   2.1067   2.1098
     2.1338   2.1343   2.1377   2.1393   2.1590   2.1788   2.1823   2.1860
     2.2063   2.2108   2.2381   2.2491   2.2547   2.2712   2.2720   2.2744
     2.2753   2.2771   2.2793   2.2842   2.2844   2.2924   2.3125   2.3204
     2.3583   2.3611   2.3623   2.3657   2.3716   2.3749   2.3807   2.4052
     2.4100   2.4152   2.4290   2.4528   2.4540   2.4723   2.4787   2.4794
     2.4902   2.4930   2.5238   2.5321   2.5372   2.5380   2.5644   2.5652
     2.5868   2.5929   2.5936   2.6118   2.6132   2.6353   2.6359   2.6371
     2.6403   2.6435   2.6560   2.6561   2.6609   2.6674   2.6714   2.6890
     2.7254   2.7314   2.7318   2.7353   2.7824   2.7827   2.7934   2.7957
     2.8256   2.8380   2.8387   2.8445   2.8449   2.8586   2.8619   2.8889
     2.8898   2.8900   2.8994   2.8997   2.9105   2.9127   2.9139   2.9143
     2.9165   2.9233   2.9235   2.9245   2.9270   2.9414   2.9422   2.9567
     2.9574   2.9640   2.9680   2.9681   2.9796   2.9955   3.0003   3.0065
     3.0070   3.0240   3.0548   3.0550   3.0662   3.0874   3.0878   3.2426
     3.2481   3.3554   3.3555   3.4571   3.4575   3.5620   3.7816   3.7844
     4.1617   4.1751   4.2660   4.2663   4.2796   4.5418   4.6505   4.6579
     4.6738   4.6739   4.8030   5.1191   5.1467   5.1477   5.5920   5.6313
     5.6530   5.7043   5.8843   5.9020   5.9038   6.0336   6.0412   6.1248
     6.1985   6.5698   6.6471   6.6496   6.8217   6.8943   6.9682   7.0269
     7.0277   7.3016   7.3608   7.3694   7.5740   7.7697   7.8560   7.9362
     8.4452   8.4503   8.4695   8.5536   8.7241   9.0316   9.1059   9.1352
     9.2073   9.2988   9.3211   9.4501   9.4608   9.6312   9.6491   9.6716
     9.7839   9.8519  10.0105  10.1157  10.1496  10.3361  10.4006  10.4588
    10.5003  10.5815  10.6680  10.7821  10.8210  11.0447  11.1188  11.1576
    11.2460  11.2669  11.4254  11.4524  11.4579  11.5897  11.6196  11.6829
    11.6910  11.7832  11.8285  11.8426  11.9893  12.0837  12.1330  12.1637
    12.2669  12.3478  12.3798  12.4087  12.4707  12.4963  12.5590  12.6001
    12.6989  12.7143  12.8029  12.8947  12.9379  12.9670  13.1442  13.2485
    13.2607  13.2873  13.3662  13.4002  13.4669  13.5006  13.5289  13.6274
    13.6493  13.6815

     the Fermi energy is     4.5847 ev

!    total energy              =  -21903.76906545 Ry
     Harris-Foulkes estimate   =  -21903.76906547 Ry
     estimated scf accuracy    <          9.1E-09 Ry

     The total energy is the sum of the following terms:

     one-electron contribution = -206648.79599205 Ry
     hartree contribution      =  103526.17765280 Ry
     xc contribution           =   -2143.17758581 Ry
     ewald contribution        =   83362.07944244 Ry
     smearing contrib. (-TS)   =      -0.05258284 Ry

     convergence has been achieved in  37 iterations
 
     init_run     :     93.23s CPU     95.84s WALL (       1 calls)
     electrons    :  21741.20s CPU  22060.03s WALL (       1 calls)

     Called by init_run:
     wfcinit      :     82.26s CPU     84.05s WALL (       1 calls)
     potinit      :      5.82s CPU      6.09s WALL (       1 calls)
     hinit0       :      2.30s CPU      2.35s WALL (       1 calls)

     Called by electrons:
     c_bands      :  20551.96s CPU  20806.61s WALL (      37 calls)
     sum_band     :    947.90s CPU    982.61s WALL (      37 calls)
     v_of_rho     :    194.63s CPU    204.03s WALL (      38 calls)
     newd         :     43.71s CPU     64.10s WALL (      38 calls)
     mix_rho      :      5.46s CPU      5.62s WALL (      37 calls)

     Called by c_bands:
     init_us_2    :     35.51s CPU     36.56s WALL (     750 calls)
     cegterg      :  20402.50s CPU  20651.41s WALL (     371 calls)

     Called by sum_band:
     sum_band:bec :      3.07s CPU      3.08s WALL (     370 calls)
     addusdens    :     52.27s CPU     74.20s WALL (      37 calls)

     Called by *egterg:
     h_psi        :   4379.13s CPU   4456.52s WALL (    2211 calls)
     s_psi        :    642.51s CPU    643.50s WALL (    2211 calls)
     g_psi        :     14.04s CPU     14.08s WALL (    1830 calls)
     cdiaghg      :  11459.67s CPU  11532.97s WALL (    2201 calls)

     Called by h_psi:
     h_psi:pot    :   4365.21s CPU   4424.23s WALL (    2211 calls)
     h_psi:calbec :    832.37s CPU    836.58s WALL (    2211 calls)
     vloc_psi     :   2885.58s CPU   2939.08s WALL (    2211 calls)
     add_vuspsi   :    647.21s CPU    648.55s WALL (    2211 calls)

     General routines
     calbec       :   1111.80s CPU   1116.51s WALL (    2581 calls)
     fft          :    140.65s CPU    142.59s WALL (    2393 calls)
     ffts         :      0.55s CPU      0.57s WALL (      75 calls)
     fftw         :   3080.46s CPU   3140.99s WALL ( 1496924 calls)
     interpolate  :      2.49s CPU      2.59s WALL (      38 calls)
 
     Parallel routines
     fft_scatt_xy :    297.15s CPU    298.81s WALL ( 1499392 calls)
     fft_scatt_yz :   1815.78s CPU   1870.61s WALL ( 1499392 calls)
 
     PWSCF        :     6h 3m CPU        3h 6m WALL

       9h
 
   This run was terminated on:   4:22:47  19Nov2019            

=------------------------------------------------------------------------------=
   JOB DONE.
=------------------------------------------------------------------------------=
