
     Program PWSCF v.6.3MaX starts on 15Nov2019 at  9:22:49 

     This program is part of the open-source Quantum ESPRESSO suite
     for quantum simulation of materials; please cite
         "P. Giannozzi et al., J. Phys.:Condens. Matter 21 395502 (2009);
         "P. Giannozzi et al., J. Phys.:Condens. Matter 29 465901 (2017);
          URL http://www.quantum-espresso.org", 
     in publications or presentations arising from this work. More details at
     http://www.quantum-espresso.org/quote

     Parallel version (MPI), running on    16 processors

     MPI processes distributed on     2 nodes
     R & G space division:  proc/nbgrp/npool/nimage =      16
     Waiting for input...
     Reading input from standard input

     Current dimensions of program PWSCF are:
     Max number of different atomic species (ntypx) = 10
     Max number of k-points (npk) =  40000
     Max angular momentum in pseudopotentials (lmaxx) =  3
     Message from routine iosys:
     minimal I/O required, wf_collect reset to FALSE

     IMPORTANT: XC functional enforced from input :
     Exchange-correlation      = VDW-DF ( 1  4  4  0 1 0)
     Any further DFT definition will be discarded
     Please, verify this is what you really want


     Subspace diagonalization in iterative solution of the eigenvalue problem:
     one sub-group per band group will be used
     scalapack distributed-memory algorithm (size of sub-group:  2*  2 procs)

 
     Parallelization info
     --------------------
     sticks:   dense  smooth     PW     G-vecs:    dense   smooth      PW
     Min         565     189     51               159513    30701    4383
     Max         566     190     52               159526    30710    4400
     Sum        9055    3037    823              2552337   491295   70261
 


     bravais-lattice index     =            0
     lattice parameter (alat)  =      14.8058  a.u.
     unit-cell volume          =   10282.4791 (a.u.)^3
     number of atoms/cell      =           66
     number of atomic types    =            3
     number of electrons       =      1056.00
     number of Kohn-Sham states=          634
     kinetic-energy cutoff     =      50.0000  Ry
     charge density cutoff     =     600.0000  Ry
     convergence threshold     =      1.0E-08
     mixing beta               =       0.3000
     number of iterations used =            8  plain     mixing
     Exchange-correlation      = VDW-DF ( 1  4  4  0 1 0)

     celldm(1)=  14.805786  celldm(2)=   0.000000  celldm(3)=   0.000000
     celldm(4)=   0.000000  celldm(5)=   0.000000  celldm(6)=   0.000000

     crystal axes: (cart. coord. in units of alat)
               a(1) = (   1.000000   0.000000   0.000000 )  
               a(2) = (   0.500000   0.866025   0.000000 )  
               a(3) = (   0.000000   0.000000   3.658245 )  

     reciprocal axes: (cart. coord. in units 2 pi/alat)
               b(1) = (  1.000000 -0.577350  0.000000 )  
               b(2) = (  0.000000  1.154701  0.000000 )  
               b(3) = (  0.000000  0.000000  0.273355 )  


     PseudoPot. # 1 for Cu read from file:
     /deac/thonhauserGrp/chakrad/calculations/atomandmolecule-qe6.2.1-i2012-C6modif/all_pbe_UPF_v1.5/cu_pbe_v1.2.uspp.F.UPF
     MD5 check sum: 6e991ff952a84172a2a52a1c1e996048
     Pseudo is Ultrasoft + core correction, Zval = 19.0
     Generated by new atomic code, or converted to UPF format
     Using radial grid of  867 points,  6 beta functions with: 
                l(1) =   0
                l(2) =   0
                l(3) =   1
                l(4) =   1
                l(5) =   2
                l(6) =   2
     Q(r) pseudized with  8 coefficients,  rinner =    1.150   1.150   1.150
                                                       1.150   1.150

     PseudoPot. # 2 for C  read from file:
     /deac/thonhauserGrp/chakrad/calculations/atomandmolecule-qe6.2.1-i2012-C6modif/all_pbe_UPF_v1.5/c_pbe_v1.2.uspp.F.UPF
     MD5 check sum: d1aef80898a10debaa0f26306b886e00
     Pseudo is Ultrasoft + core correction, Zval =  4.0
     Generated by new atomic code, or converted to UPF format
     Using radial grid of  721 points,  4 beta functions with: 
                l(1) =   0
                l(2) =   0
                l(3) =   1
                l(4) =   1
     Q(r) pseudized with  8 coefficients,  rinner =    1.100   1.100   1.100


     PseudoPot. # 3 for H  read from file:
     /deac/thonhauserGrp/chakrad/calculations/atomandmolecule-qe6.2.1-i2012-C6modif/all_pbe_UPF_v1.5/h_pbe_v1.4.uspp.F.UPF
     MD5 check sum: 761ae9a214b05c3daf00ab9f6b793d6f
     Pseudo is Ultrasoft, Zval =  1.0
     Generated by new atomic code, or converted to UPF format
     Using radial grid of  615 points,  2 beta functions with: 
                l(1) =   0
                l(2) =   0
     Q(r) pseudized with  8 coefficients,  rinner =    0.700

     vdW kernel table read from file vdW_kernel_table
     MD5 check sum: cc9485f6209b1096fbef62427c856dab

     atomic species   valence    mass     pseudopotential
        Cu            19.00     1.00000     Cu( 1.00)
        C              4.00     1.00000     C ( 1.00)
        H              1.00     1.00000     H ( 1.00)

     No symmetry found



   Cartesian axes

     site n.     atom                  positions (alat units)
         1           Cu  tau(   1) = (   0.1666667   0.0962250   0.2552686  )
         2           Cu  tau(   2) = (   0.5000000   0.0962250   0.2552686  )
         3           Cu  tau(   3) = (   0.8333333   0.0962250   0.2552686  )
         4           Cu  tau(   4) = (   0.3333333   0.3849002   0.2552686  )
         5           Cu  tau(   5) = (   0.6666667   0.3849002   0.2552686  )
         6           Cu  tau(   6) = (   1.0000000   0.3849002   0.2552686  )
         7           Cu  tau(   7) = (   0.5000000   0.6735753   0.2552686  )
         8           Cu  tau(   8) = (   0.8333333   0.6735753   0.2552686  )
         9           Cu  tau(   9) = (   1.1666667   0.6735753   0.2552686  )
        10           Cu  tau(  10) = (   0.0000000   0.1924501   0.5274341  )
        11           Cu  tau(  11) = (   0.3333333   0.1924501   0.5274341  )
        12           Cu  tau(  12) = (   0.6666667   0.1924501   0.5274341  )
        13           Cu  tau(  13) = (   0.1666667   0.4811252   0.5274341  )
        14           Cu  tau(  14) = (   0.5000000   0.4811252   0.5274341  )
        15           Cu  tau(  15) = (   0.8333333   0.4811252   0.5274341  )
        16           Cu  tau(  16) = (   0.3333333   0.7698004   0.5274341  )
        17           Cu  tau(  17) = (   0.6666667   0.7698004   0.5274341  )
        18           Cu  tau(  18) = (   1.0000000   0.7698004   0.5274341  )
        19           Cu  tau(  19) = (   0.0000000   0.0000000   0.7995997  )
        20           Cu  tau(  20) = (   0.3333333   0.0000000   0.7995997  )
        21           Cu  tau(  21) = (   0.6666667   0.0000000   0.7995997  )
        22           Cu  tau(  22) = (   0.1666667   0.2886751   0.7995997  )
        23           Cu  tau(  23) = (   0.5000000   0.2886751   0.7995997  )
        24           Cu  tau(  24) = (   0.8333333   0.2886751   0.7995997  )
        25           Cu  tau(  25) = (   0.3333333   0.5773503   0.7995997  )
        26           Cu  tau(  26) = (   0.6666667   0.5773503   0.7995997  )
        27           Cu  tau(  27) = (   1.0000000   0.5773503   0.7995997  )
        28           Cu  tau(  28) = (   0.1666659   0.0962246   1.0691130  )
        29           Cu  tau(  29) = (   0.5000000   0.0962241   1.0691104  )
        30           Cu  tau(  30) = (   0.8333341   0.0962246   1.0691130  )
        31           Cu  tau(  31) = (   0.3333325   0.3849006   1.0691104  )
        32           Cu  tau(  32) = (   0.6666675   0.3849006   1.0691104  )
        33           Cu  tau(  33) = (   1.0000000   0.3849003   1.0691143  )
        34           Cu  tau(  34) = (   0.5000000   0.6735762   1.0691130  )
        35           Cu  tau(  35) = (   0.8333334   0.6735753   1.0691143  )
        36           Cu  tau(  36) = (   1.1666666   0.6735753   1.0691143  )
        37           Cu  tau(  37) = (   0.0000000   0.1924486   1.3387540  )
        38           Cu  tau(  38) = (   0.3333330   0.1924499   1.3387465  )
        39           Cu  tau(  39) = (   0.6666670   0.1924499   1.3387465  )
        40           Cu  tau(  40) = (   0.1666676   0.4811247   1.3387504  )
        41           Cu  tau(  41) = (   0.5000000   0.4811256   1.3387465  )
        42           Cu  tau(  42) = (   0.8333324   0.4811247   1.3387504  )
        43           Cu  tau(  43) = (   0.3333346   0.7698011   1.3387540  )
        44           Cu  tau(  44) = (   0.6666654   0.7698011   1.3387540  )
        45           Cu  tau(  45) = (   1.0000000   0.7698014   1.3387504  )
        46           Cu  tau(  46) = (   0.0000000   0.0000000   1.6083750  )
        47           Cu  tau(  47) = (   0.3333333   0.0000005   1.6083624  )
        48           Cu  tau(  48) = (   0.6666667   0.0000005   1.6083624  )
        49           Cu  tau(  49) = (   0.1666671   0.2886748   1.6083624  )
        50           Cu  tau(  50) = (   0.5000000   0.2886751   1.6083553  )
        51           Cu  tau(  51) = (   0.8333329   0.2886748   1.6083624  )
        52           Cu  tau(  52) = (   0.3333338   0.5773500   1.6083624  )
        53           Cu  tau(  53) = (   0.6666662   0.5773500   1.6083624  )
        54           Cu  tau(  54) = (   1.0000000   0.5773503   1.6083570  )
        55           C   tau(  55) = (   0.6567407   0.3959883   2.0997100  )
        56           C   tau(  56) = (   0.5046394   0.3028152   2.0997099  )
        57           C   tau(  57) = (   0.3478975   0.3879497   2.0997100  )
        58           C   tau(  58) = (   0.3432593   0.5662630   2.0997100  )
        59           C   tau(  59) = (   0.4953606   0.6594361   2.0997099  )
        60           C   tau(  60) = (   0.6521025   0.5743016   2.0997100  )
        61           H   tau(  61) = (   0.7789959   0.3295665   2.0997882  )
        62           H   tau(  62) = (   0.5082587   0.1637263   2.0997882  )
        63           H   tau(  63) = (   0.2292624   0.3152577   2.0997882  )
        64           H   tau(  64) = (   0.2210041   0.6326847   2.0997882  )
        65           H   tau(  65) = (   0.4917413   0.7985249   2.0997882  )
        66           H   tau(  66) = (   0.7707376   0.6469936   2.0997882  )

     number of k points=    10  gaussian smearing, width (Ry)=  0.0200
                       cart. coord. in units 2pi/alat
        k(    1) = (   0.0000000   0.0000000   0.0000000), wk =   0.1250000
        k(    2) = (   0.0000000   0.2886751   0.0000000), wk =   0.2500000
        k(    3) = (   0.0000000  -0.5773503   0.0000000), wk =   0.1250000
        k(    4) = (   0.2500000  -0.7216878   0.0000000), wk =   0.2500000
        k(    5) = (  -0.2500000   0.1443376   0.0000000), wk =   0.2500000
        k(    6) = (   0.2500000   0.1443376   0.0000000), wk =   0.2500000
        k(    7) = (   0.5000000  -0.2886751   0.0000000), wk =   0.1250000
        k(    8) = (  -0.5000000  -0.2886751   0.0000000), wk =   0.1250000
        k(    9) = (  -0.2500000  -0.7216878   0.0000000), wk =   0.2500000
        k(   10) = (  -0.5000000  -0.5773503   0.0000000), wk =   0.2500000

     Dense  grid:  2552337 G-vectors     FFT dimensions: ( 120, 120, 432)

     Smooth grid:   491295 G-vectors     FFT dimensions: (  72,  72, 243)

     Estimated max dynamical RAM per process >       1.14 GB

     Estimated total dynamical RAM >      18.26 GB

     Initial potential from superposition of free atoms
     Check: negative starting charge=   -0.000706

     starting charge 1001.99960, renormalised to 1056.00000

     negative rho (up, down):  7.437E-04 0.000E+00


     %%%%%%%%%%%%%%%%%%%%%%%%%%%%%%%%%%%%%%%%%%%%%%%%%%%%%%%%%%%%%%%%%%%%%%%%
     %                                                                      %
     % You are using vdW-DF, which was implemented by the Thonhauser group. %
     % Please cite the following two papers that made this development      %
     % possible and the two reviews that describe the various versions:     %
     %                                                                      %
     %   T. Thonhauser et al., PRL 115, 136402 (2015).                      %
     %   T. Thonhauser et al., PRB 76, 125112 (2007).                       %
     %   K. Berland et al., Rep. Prog. Phys. 78, 066501 (2015).             %
     %   D.C. Langreth et al., J. Phys.: Condens. Matter 21, 084203 (2009). %
     %                                                                      %
     %                                                                      %
     % If you are calculating the stress with vdW-DF, please also cite:     %
     %                                                                      %
     %   R. Sabatini et al., J. Phys.: Condens. Matter 24, 424209 (2012).   %
     %                                                                      %
     %%%%%%%%%%%%%%%%%%%%%%%%%%%%%%%%%%%%%%%%%%%%%%%%%%%%%%%%%%%%%%%%%%%%%%%%


     Starting wfcs are  732 randomized atomic wfcs

     total cpu time spent up to now is      134.6 secs

     Self-consistent Calculation

     iteration #  1     ecut=    50.00 Ry     beta= 0.30
     Davidson diagonalization with overlap
     ethr =  1.00E-02,  avg # of iterations =  6.0

     negative rho (up, down):  4.568E-04 0.000E+00

     total cpu time spent up to now is     1646.6 secs

     total energy              =  -19119.74009734 Ry
     Harris-Foulkes estimate   =  -22003.57533022 Ry
     estimated scf accuracy    <    5701.43536960 Ry

     iteration #  2     ecut=    50.00 Ry     beta= 0.30
     Davidson diagonalization with overlap
     c_bands:  5 eigenvalues not converged
     ethr =  1.00E-02,  avg # of iterations = 19.0

     negative rho (up, down):  4.888E-04 0.000E+00

     total cpu time spent up to now is     5032.0 secs

     total energy              =  -19221.76347074 Ry
     Harris-Foulkes estimate   =  -38454.35961346 Ry
     estimated scf accuracy    <  282518.80933936 Ry

     iteration #  3     ecut=    50.00 Ry     beta= 0.30
     Davidson diagonalization with overlap
     ethr =  1.00E-02,  avg # of iterations =  7.0

     negative rho (up, down):  5.645E-04 0.000E+00

     total cpu time spent up to now is     6799.6 secs

     total energy              =  -21703.48979407 Ry
     Harris-Foulkes estimate   =  -23292.39226702 Ry
     estimated scf accuracy    <   43606.33982004 Ry

     iteration #  4     ecut=    50.00 Ry     beta= 0.30
     Davidson diagonalization with overlap
     ethr =  1.00E-02,  avg # of iterations =  7.6

     negative rho (up, down):  7.115E-04 0.000E+00

     total cpu time spent up to now is     8121.9 secs

     total energy              =  -21699.64480822 Ry
     Harris-Foulkes estimate   =  -22092.45643196 Ry
     estimated scf accuracy    <   10845.98741521 Ry

     iteration #  5     ecut=    50.00 Ry     beta= 0.30
     Davidson diagonalization with overlap
     ethr =  1.00E-02,  avg # of iterations =  6.0

     negative rho (up, down):  2.880E-04 0.000E+00

     total cpu time spent up to now is     9686.1 secs

     total energy              =  -21707.64836704 Ry
     Harris-Foulkes estimate   =  -22153.89843822 Ry
     estimated scf accuracy    <    8554.93915205 Ry

     iteration #  6     ecut=    50.00 Ry     beta= 0.30
     Davidson diagonalization with overlap
     ethr =  1.00E-02,  avg # of iterations =  5.2

     negative rho (up, down):  3.342E-04 0.000E+00

     total cpu time spent up to now is    10797.2 secs

     total energy              =  -21885.99035928 Ry
     Harris-Foulkes estimate   =  -21978.58979323 Ry
     estimated scf accuracy    <     699.67589557 Ry

     iteration #  7     ecut=    50.00 Ry     beta= 0.30
     Davidson diagonalization with overlap
     ethr =  1.00E-02,  avg # of iterations =  2.7

     negative rho (up, down):  4.914E-04 0.000E+00

     total cpu time spent up to now is    11204.2 secs

     total energy              =  -21907.46065283 Ry
     Harris-Foulkes estimate   =  -21933.98088501 Ry
     estimated scf accuracy    <     231.19393770 Ry

     iteration #  8     ecut=    50.00 Ry     beta= 0.30
     Davidson diagonalization with overlap
     ethr =  1.00E-02,  avg # of iterations =  3.0

     negative rho (up, down):  6.043E-04 0.000E+00

     total cpu time spent up to now is    11606.7 secs

     total energy              =  -21910.76502264 Ry
     Harris-Foulkes estimate   =  -21922.30489983 Ry
     estimated scf accuracy    <     327.84631467 Ry

     iteration #  9     ecut=    50.00 Ry     beta= 0.30
     Davidson diagonalization with overlap
     ethr =  1.00E-02,  avg # of iterations =  1.3

     negative rho (up, down):  6.973E-04 0.000E+00

     total cpu time spent up to now is    11914.2 secs

     total energy              =  -21913.29675373 Ry
     Harris-Foulkes estimate   =  -21915.43080034 Ry
     estimated scf accuracy    <     104.12960202 Ry

     iteration # 10     ecut=    50.00 Ry     beta= 0.30
     Davidson diagonalization with overlap
     ethr =  9.86E-03,  avg # of iterations =  1.0

     negative rho (up, down):  1.802E-02 0.000E+00

     total cpu time spent up to now is    12211.8 secs

     total energy              =  -21894.37700396 Ry
     Harris-Foulkes estimate   =  -21913.67672716 Ry
     estimated scf accuracy    <      76.23973220 Ry

     iteration # 11     ecut=    50.00 Ry     beta= 0.30
     Davidson diagonalization with overlap
     ethr =  7.22E-03,  avg # of iterations =  6.0

     total cpu time spent up to now is    13022.2 secs

     total energy              =  -21879.09853755 Ry
     Harris-Foulkes estimate   =  -21930.93948353 Ry
     estimated scf accuracy    <    1528.35470554 Ry

     iteration # 12     ecut=    50.00 Ry     beta= 0.30
     Davidson diagonalization with overlap
     ethr =  7.22E-03,  avg # of iterations =  3.0

     total cpu time spent up to now is    13443.3 secs

     total energy              =  -21903.44293270 Ry
     Harris-Foulkes estimate   =  -21906.42613859 Ry
     estimated scf accuracy    <      39.75648964 Ry

     iteration # 13     ecut=    50.00 Ry     beta= 0.30
     Davidson diagonalization with overlap
     ethr =  3.76E-03,  avg # of iterations =  2.9

     total cpu time spent up to now is    13820.1 secs

     total energy              =  -21903.38057822 Ry
     Harris-Foulkes estimate   =  -21904.68767091 Ry
     estimated scf accuracy    <      20.22123044 Ry

     iteration # 14     ecut=    50.00 Ry     beta= 0.30
     Davidson diagonalization with overlap
     ethr =  1.91E-03,  avg # of iterations =  2.3

     total cpu time spent up to now is    14178.1 secs

     total energy              =  -21904.03859643 Ry
     Harris-Foulkes estimate   =  -21904.24180024 Ry
     estimated scf accuracy    <       7.29517721 Ry

     iteration # 15     ecut=    50.00 Ry     beta= 0.30
     Davidson diagonalization with overlap
     ethr =  6.91E-04,  avg # of iterations =  4.7

     total cpu time spent up to now is    14647.5 secs

     total energy              =  -21904.05803241 Ry
     Harris-Foulkes estimate   =  -21904.36693817 Ry
     estimated scf accuracy    <       3.71404611 Ry

     iteration # 16     ecut=    50.00 Ry     beta= 0.30
     Davidson diagonalization with overlap
     ethr =  3.52E-04,  avg # of iterations =  5.0

     total cpu time spent up to now is    15109.0 secs

     total energy              =  -21903.87578173 Ry
     Harris-Foulkes estimate   =  -21904.15364690 Ry
     estimated scf accuracy    <       4.72200153 Ry

     iteration # 17     ecut=    50.00 Ry     beta= 0.30
     Davidson diagonalization with overlap
     ethr =  3.52E-04,  avg # of iterations =  3.7

     total cpu time spent up to now is    15516.3 secs

     total energy              =  -21903.83930679 Ry
     Harris-Foulkes estimate   =  -21903.94909998 Ry
     estimated scf accuracy    <       2.46129133 Ry

     iteration # 18     ecut=    50.00 Ry     beta= 0.30
     Davidson diagonalization with overlap
     ethr =  2.33E-04,  avg # of iterations =  2.4

     total cpu time spent up to now is    15866.5 secs

     total energy              =  -21903.79126058 Ry
     Harris-Foulkes estimate   =  -21903.88878572 Ry
     estimated scf accuracy    <       1.95991102 Ry

     iteration # 19     ecut=    50.00 Ry     beta= 0.30
     Davidson diagonalization with overlap
     ethr =  1.86E-04,  avg # of iterations =  5.4

     total cpu time spent up to now is    16350.5 secs

     total energy              =  -21903.80120382 Ry
     Harris-Foulkes estimate   =  -21903.81843637 Ry
     estimated scf accuracy    <       0.45444025 Ry

     iteration # 20     ecut=    50.00 Ry     beta= 0.30
     Davidson diagonalization with overlap
     ethr =  4.30E-05,  avg # of iterations =  5.1

     negative rho (up, down):  2.316E-07 0.000E+00

     total cpu time spent up to now is    16834.7 secs

     total energy              =  -21903.74671737 Ry
     Harris-Foulkes estimate   =  -21903.80601703 Ry
     estimated scf accuracy    <       0.48623025 Ry

     iteration # 21     ecut=    50.00 Ry     beta= 0.30
     Davidson diagonalization with overlap
     ethr =  4.30E-05,  avg # of iterations =  7.4

     negative rho (up, down):  7.212E-07 0.000E+00

     total cpu time spent up to now is    17483.5 secs

     total energy              =  -21903.76480529 Ry
     Harris-Foulkes estimate   =  -21903.76926123 Ry
     estimated scf accuracy    <       0.03275651 Ry

     iteration # 22     ecut=    50.00 Ry     beta= 0.30
     Davidson diagonalization with overlap
     ethr =  3.10E-06,  avg # of iterations =  3.9

     negative rho (up, down):  6.817E-06 0.000E+00

     total cpu time spent up to now is    17943.7 secs

     total energy              =  -21903.76659770 Ry
     Harris-Foulkes estimate   =  -21903.76784061 Ry
     estimated scf accuracy    <       0.01054406 Ry

     iteration # 23     ecut=    50.00 Ry     beta= 0.30
     Davidson diagonalization with overlap
     ethr =  9.98E-07,  avg # of iterations =  8.4

     negative rho (up, down):  3.399E-05 0.000E+00

     total cpu time spent up to now is    18723.7 secs

     total energy              =  -21903.76726957 Ry
     Harris-Foulkes estimate   =  -21903.76770406 Ry
     estimated scf accuracy    <       0.00507283 Ry

     iteration # 24     ecut=    50.00 Ry     beta= 0.30
     Davidson diagonalization with overlap
     ethr =  4.80E-07,  avg # of iterations =  5.2

     negative rho (up, down):  1.587E-04 0.000E+00

     total cpu time spent up to now is    19473.1 secs

     total energy              =  -21903.76772613 Ry
     Harris-Foulkes estimate   =  -21903.76778165 Ry
     estimated scf accuracy    <       0.00289248 Ry

     iteration # 25     ecut=    50.00 Ry     beta= 0.30
     Davidson diagonalization with overlap
     ethr =  2.74E-07,  avg # of iterations =  5.9

     negative rho (up, down):  6.332E-04 0.000E+00

     total cpu time spent up to now is    20311.4 secs

     total energy              =  -21903.76806372 Ry
     Harris-Foulkes estimate   =  -21903.76791734 Ry
     estimated scf accuracy    <       0.00059876 Ry

     iteration # 26     ecut=    50.00 Ry     beta= 0.30
     Davidson diagonalization with overlap
     ethr =  5.67E-08,  avg # of iterations = 10.7

     negative rho (up, down):  9.963E-04 0.000E+00

     total cpu time spent up to now is    21485.6 secs

     total energy              =  -21903.76811824 Ry
     Harris-Foulkes estimate   =  -21903.76812300 Ry
     estimated scf accuracy    <       0.00080464 Ry

     iteration # 27     ecut=    50.00 Ry     beta= 0.30
     Davidson diagonalization with overlap
     ethr =  5.67E-08,  avg # of iterations =  3.9

     negative rho (up, down):  1.433E-03 0.000E+00

     total cpu time spent up to now is    22173.6 secs

     total energy              =  -21903.76815434 Ry
     Harris-Foulkes estimate   =  -21903.76814545 Ry
     estimated scf accuracy    <       0.00004460 Ry

     iteration # 28     ecut=    50.00 Ry     beta= 0.30
     Davidson diagonalization with overlap
     ethr =  4.22E-09,  avg # of iterations =  3.5

     negative rho (up, down):  1.772E-03 0.000E+00

     total cpu time spent up to now is    22821.9 secs

     total energy              =  -21903.76815714 Ry
     Harris-Foulkes estimate   =  -21903.76816027 Ry
     estimated scf accuracy    <       0.00002925 Ry

     iteration # 29     ecut=    50.00 Ry     beta= 0.30
     Davidson diagonalization with overlap
     ethr =  2.77E-09,  avg # of iterations =  6.3

     negative rho (up, down):  2.023E-03 0.000E+00

     total cpu time spent up to now is    23650.3 secs

     total energy              =  -21903.76815842 Ry
     Harris-Foulkes estimate   =  -21903.76816092 Ry
     estimated scf accuracy    <       0.00000892 Ry

     iteration # 30     ecut=    50.00 Ry     beta= 0.30
     Davidson diagonalization with overlap
     ethr =  8.45E-10,  avg # of iterations =  2.3

     negative rho (up, down):  2.222E-03 0.000E+00

     total cpu time spent up to now is    24223.9 secs

     total energy              =  -21903.76815723 Ry
     Harris-Foulkes estimate   =  -21903.76816021 Ry
     estimated scf accuracy    <       0.00001345 Ry

     iteration # 31     ecut=    50.00 Ry     beta= 0.30
     Davidson diagonalization with overlap
     ethr =  8.45E-10,  avg # of iterations =  2.0

     negative rho (up, down):  2.253E-03 0.000E+00

     total cpu time spent up to now is    24790.0 secs

     total energy              =  -21903.76815753 Ry
     Harris-Foulkes estimate   =  -21903.76815892 Ry
     estimated scf accuracy    <       0.00001280 Ry

     iteration # 32     ecut=    50.00 Ry     beta= 0.30
     Davidson diagonalization with overlap
     ethr =  8.45E-10,  avg # of iterations =  1.0

     negative rho (up, down):  2.281E-03 0.000E+00

     total cpu time spent up to now is    25304.1 secs

     total energy              =  -21903.76815785 Ry
     Harris-Foulkes estimate   =  -21903.76815811 Ry
     estimated scf accuracy    <       0.00000028 Ry

     iteration # 33     ecut=    50.00 Ry     beta= 0.30
     Davidson diagonalization with overlap
     ethr =  2.61E-11,  avg # of iterations =  2.0

     negative rho (up, down):  2.293E-03 0.000E+00

     total cpu time spent up to now is    25937.8 secs

     total energy              =  -21903.76815774 Ry
     Harris-Foulkes estimate   =  -21903.76815792 Ry
     estimated scf accuracy    <       0.00000093 Ry

     iteration # 34     ecut=    50.00 Ry     beta= 0.30
     Davidson diagonalization with overlap
     ethr =  2.61E-11,  avg # of iterations =  2.0

     negative rho (up, down):  2.291E-03 0.000E+00

     total cpu time spent up to now is    26507.1 secs

     total energy              =  -21903.76815780 Ry
     Harris-Foulkes estimate   =  -21903.76815780 Ry
     estimated scf accuracy    <       0.00000022 Ry

     iteration # 35     ecut=    50.00 Ry     beta= 0.30
     Davidson diagonalization with overlap
     ethr =  2.06E-11,  avg # of iterations =  1.4

     negative rho (up, down):  2.304E-03 0.000E+00

     total cpu time spent up to now is    27030.4 secs

     total energy              =  -21903.76815769 Ry
     Harris-Foulkes estimate   =  -21903.76815782 Ry
     estimated scf accuracy    <       0.00000004 Ry

     iteration # 36     ecut=    50.00 Ry     beta= 0.30
     Davidson diagonalization with overlap
     ethr =  3.51E-12,  avg # of iterations =  2.0

     negative rho (up, down):  2.302E-03 0.000E+00

     total cpu time spent up to now is    27596.6 secs

     total energy              =  -21903.76815771 Ry
     Harris-Foulkes estimate   =  -21903.76815770 Ry
     estimated scf accuracy    <       0.00000002 Ry

     iteration # 37     ecut=    50.00 Ry     beta= 0.30
     Davidson diagonalization with overlap
     ethr =  1.57E-12,  avg # of iterations =  2.0

     negative rho (up, down):  2.307E-03 0.000E+00

     total cpu time spent up to now is    28167.0 secs

     End of self-consistent calculation

          k = 0.0000 0.0000 0.0000 ( 61453 PWs)   bands (ev):

  -107.8896-107.8846-107.8833-107.8831-107.8831-107.8828-107.8828-107.8823
  -107.8807-107.8795-107.8795-107.8795-107.8795-107.8789-107.8789-107.8786
  -107.8781-107.8779-107.8757-107.8736-107.8736-107.8736-107.8730-107.8730
  -107.8729-107.8707-107.8707-107.8689-107.8647-107.8642-107.8642-107.8642
  -107.8642-107.8636-107.8619-107.8616-107.6477-107.6435-107.6435-107.6434
  -107.6420-107.6420-107.6399-107.6378-107.6378-107.6302-107.6252-107.6252
  -107.6252-107.6251-107.6251-107.6251-107.6226-107.6226 -65.3440 -65.3308
   -65.3304 -65.3304 -65.3301 -65.3301 -65.3297 -65.3228 -65.3227 -65.3227
   -65.3224 -65.3224 -65.3221 -65.3221 -65.3219 -65.3187 -65.3187 -65.3185
   -65.3183 -65.3164 -65.3108 -65.3108 -65.3106 -65.3101 -65.3099 -65.3099
   -65.3081 -65.3080 -65.3080 -65.3078 -65.3078 -65.3075 -65.3073 -65.3073
   -65.3048 -65.3048 -65.3043 -65.3042 -65.2986 -65.2986 -65.2986 -65.2982
   -65.2982 -65.2982 -65.2973 -65.2973 -65.2938 -65.2938 -65.2918 -65.2907
   -65.2906 -65.2903 -65.2903 -65.2903 -65.2903 -65.2900 -65.2887 -65.2834
   -65.2834 -65.2823 -65.2823 -65.2822 -65.2820 -65.2820 -65.2819 -65.2802
   -65.2802 -65.2802 -65.2796 -65.2793 -65.2793 -65.2787 -65.2787 -65.2761
   -65.2761 -65.2724 -65.2721 -65.2721 -65.2719 -65.2719 -65.2718 -65.2718
   -65.2718 -65.2714 -65.2713 -65.2711 -65.2711 -65.2685 -65.2657 -65.2657
   -65.2653 -65.2652 -65.2652 -65.2651 -65.2650 -65.2650 -65.2593 -65.2593
   -65.2576 -65.2576 -65.2575 -65.2573 -65.2571 -65.2571 -65.2532 -65.2532
   -65.2466 -65.2466 -65.1006 -65.1003 -65.1003 -65.0992 -65.0991 -65.0990
   -65.0966 -65.0965 -65.0965 -65.0953 -65.0845 -65.0844 -65.0844 -65.0844
   -65.0843 -65.0843 -65.0819 -65.0819 -65.0815 -65.0814 -65.0654 -65.0647
   -65.0646 -65.0635 -65.0635 -65.0630 -65.0518 -65.0518 -65.0491 -65.0491
   -65.0491 -65.0491 -65.0491 -65.0489 -65.0369 -65.0369 -65.0228 -65.0191
   -65.0190 -65.0189 -65.0175 -65.0175 -65.0148 -65.0129 -65.0128 -65.0023
   -64.9976 -64.9976 -64.9976 -64.9975 -64.9975 -64.9975 -64.9951 -64.9951
   -12.5065  -9.7657  -9.7655  -6.1792  -6.1786  -4.2569  -4.1541  -3.5332
    -2.6669  -2.5815  -2.2625  -1.6180  -1.6179  -1.4517  -1.1888  -1.1886
    -1.1886  -1.1885  -1.1885  -1.1884  -0.7846  -0.7839  -0.7838  -0.7838
    -0.7838  -0.7837  -0.5992  -0.3657  -0.2860  -0.2833  -0.2832  -0.2832
    -0.2832  -0.2832  -0.2634   0.1673   0.1673   0.1675   0.1675   0.1676
     0.1694   0.3159   0.3162   0.5173   0.5173   0.5176   0.5179   0.5179
     0.5187   0.6423   0.6423   0.6424   0.6425   0.6425   0.6427   0.6920
     0.6920   0.6921   0.6922   0.6922   0.6925   0.7200   0.7200   0.7338
     0.7338   0.7455   0.7455   0.8412   0.8412   0.8486   0.8486   0.8708
     0.8708   0.8709   0.8710   0.8710   0.8714   0.8788   0.8788   0.8799
     0.8799   0.9315   0.9315   0.9716   0.9716   1.0805   1.0805   1.0842
     1.0843   1.0845   1.0846   1.0846   1.0851   1.1163   1.1163   1.3201
     1.3201   1.3206   1.3209   1.3209   1.3217   1.4493   1.4493   1.4574
     1.4574   1.4725   1.4725   1.4729   1.4729   1.4730   1.4735   1.5111
     1.5176   1.5176   1.5310   1.5859   1.5859   1.5863   1.5864   1.5864
     1.5867   1.5993   1.5993   1.6242   1.6242   1.6561   1.6607   1.6607
     1.6721   1.6721   1.6728   1.6728   1.6729   1.6732   1.7106   1.7106
     1.7240   1.7240   1.7242   1.7242   1.7242   1.7244   1.7431   1.7432
     1.7432   1.7435   1.7435   1.7435   1.7493   1.7493   1.7669   1.8691
     1.8691   1.8724   1.8724   1.8748   1.8748   1.8751   1.8760   1.8879
     1.8879   1.9006   1.9009   1.9185   1.9185   1.9198   1.9198   1.9440
     1.9440   1.9454   1.9455   1.9455   1.9458   1.9459   1.9459   2.1219
     2.1219   2.1400   2.1402   2.1402   2.1421   2.2043   2.2045   2.2045
     2.2047   2.2047   2.2048   2.2442   2.2442   2.2718   2.2718   2.2720
     2.2735   2.2793   2.2793   2.2836   2.2836   2.3054   2.3054   2.3433
     2.3664   2.3665   2.3716   2.3716   2.4013   2.4013   2.4103   2.4105
     2.4105   2.4119   2.4349   2.4349   2.4349   2.4352   2.4352   2.4352
     2.4358   2.4358   2.4387   2.4387   2.4465   2.4465   2.5095   2.5095
     2.5737   2.5737   2.5737   2.5738   2.5739   2.5739   2.6315   2.6320
     2.6320   2.6327   2.6328   2.6328   2.6330   2.6330   2.6330   2.6332
     2.6381   2.6381   2.6980   2.6980   2.7018   2.7018   2.7019   2.7021
     2.7022   2.7022   2.7132   2.7133   2.7133   2.7135   2.7135   2.7135
     2.7379   2.7379   2.7379   2.7382   2.7382   2.7382   2.7714   2.7714
     2.7785   2.7785   2.8093   2.8094   2.8094   2.8099   2.8099   2.8099
     2.8114   2.8115   2.8336   2.8337   2.8337   2.8340   2.8340   2.8341
     2.8627   2.8627   2.8643   2.8643   2.8668   2.8668   2.8852   2.8852
     2.9013   2.9014   2.9014   2.9016   2.9016   2.9017   2.9277   2.9279
     2.9279   2.9284   2.9284   2.9314   2.9455   2.9455   2.9780   2.9781
     2.9781   2.9784   2.9784   2.9784   3.7921   3.9119   3.9119   3.9119
     3.9213   3.9291   3.9291   4.3758   5.3445   5.3446   5.3470   5.3596
     5.3712   5.3712   7.0607   7.0607   7.0650   7.1240   7.1776   7.1776
     7.2575   7.5157   7.5159   7.7706   7.7707   7.7709   7.7709   7.7862
     7.7862   8.1585   8.1650   8.1650   8.1837   8.1837   8.5151   8.5850
     8.5856   8.7755   8.8425   8.8429   8.8559   8.8559   8.9412   8.9412
     8.9784   9.1819   9.4574   9.4574   9.4632   9.4632   9.4947   9.7904
     9.7905   9.8419   9.8419   9.8776  10.5193  10.5559  10.6263  10.6263
    10.6336  10.6336  10.7698  10.7698  10.8189  10.8190  10.8322  11.0399
    11.1889  11.1889  11.2699  11.2699  11.2771  11.2878  11.2878  11.3270
    11.4029  11.7064  11.7064  11.7791  11.7816  11.7817  11.8340  11.8340
    11.8475  11.8475  11.8490  11.9378  11.9379  12.0073  12.0921  12.2020
    12.2020  12.2326  12.2970  12.2970  12.3294  12.4558  12.4558  12.6786
    12.9208  12.9237  12.9240  12.9685  12.9770  12.9780  12.9782  13.0246
    13.0627  13.0774

          k = 0.0000 0.2887 0.0000 ( 61417 PWs)   bands (ev):

  -107.8890-107.8854-107.8842-107.8838-107.8833-107.8820-107.8817-107.8813
  -107.8809-107.8801-107.8800-107.8794-107.8793-107.8791-107.8788-107.8782
  -107.8780-107.8777-107.8756-107.8749-107.8739-107.8738-107.8725-107.8724
  -107.8720-107.8709-107.8709-107.8685-107.8658-107.8648-107.8647-107.8635
  -107.8634-107.8629-107.8621-107.8618-107.6473-107.6446-107.6437-107.6431
  -107.6418-107.6418-107.6398-107.6378-107.6378-107.6298-107.6268-107.6257
  -107.6257-107.6243-107.6243-107.6239-107.6228-107.6228 -65.3425 -65.3334
   -65.3329 -65.3317 -65.3306 -65.3305 -65.3300 -65.3299 -65.3268 -65.3267
   -65.3260 -65.3259 -65.3241 -65.3241 -65.3195 -65.3180 -65.3180 -65.3160
   -65.3154 -65.3144 -65.3142 -65.3142 -65.3140 -65.3138 -65.3117 -65.3117
   -65.3113 -65.3111 -65.3070 -65.3070 -65.3040 -65.3039 -65.3037 -65.3026
   -65.3025 -65.3019 -65.3012 -65.3012 -65.2991 -65.2990 -65.2966 -65.2966
   -65.2933 -65.2930 -65.2929 -65.2926 -65.2917 -65.2917 -65.2910 -65.2899
   -65.2896 -65.2886 -65.2884 -65.2871 -65.2869 -65.2868 -65.2860 -65.2853
   -65.2852 -65.2833 -65.2830 -65.2830 -65.2828 -65.2827 -65.2826 -65.2801
   -65.2800 -65.2779 -65.2778 -65.2772 -65.2772 -65.2756 -65.2755 -65.2752
   -65.2747 -65.2745 -65.2744 -65.2742 -65.2740 -65.2739 -65.2739 -65.2722
   -65.2721 -65.2704 -65.2702 -65.2699 -65.2692 -65.2686 -65.2682 -65.2681
   -65.2680 -65.2674 -65.2668 -65.2645 -65.2645 -65.2629 -65.2612 -65.2612
   -65.2612 -65.2603 -65.2600 -65.2577 -65.2576 -65.2569 -65.2543 -65.2538
   -65.2507 -65.2475 -65.1111 -65.1057 -65.1057 -65.1040 -65.1038 -65.0959
   -65.0923 -65.0922 -65.0903 -65.0903 -65.0892 -65.0891 -65.0866 -65.0865
   -65.0835 -65.0772 -65.0772 -65.0715 -65.0715 -65.0686 -65.0686 -65.0682
   -65.0669 -65.0640 -65.0639 -65.0600 -65.0560 -65.0531 -65.0531 -65.0529
   -65.0520 -65.0490 -65.0490 -65.0450 -65.0411 -65.0380 -65.0225 -65.0199
   -65.0191 -65.0186 -65.0174 -65.0173 -65.0148 -65.0129 -65.0128 -65.0019
   -64.9991 -64.9981 -64.9981 -64.9967 -64.9967 -64.9963 -64.9953 -64.9953
   -12.5057  -9.7693  -9.7663  -6.1819  -6.1745  -4.2306  -3.9407  -3.3241
    -2.6394  -2.3806  -2.3376  -2.2662  -1.7892  -1.6662  -1.6297  -1.6266
    -1.6220  -1.2638  -1.1423  -1.1420  -0.9872  -0.5705  -0.5705  -0.4862
    -0.4784  -0.4502  -0.3593  -0.3253  -0.2841  -0.2835  -0.1489  -0.1158
    -0.1113  -0.0135  -0.0090  -0.0088   0.1675   0.1686   0.1974   0.2627
     0.2631   0.2762   0.3165   0.4471   0.4518   0.4816   0.4816   0.5082
     0.5176   0.5176   0.5417   0.5418   0.5886   0.5894   0.5911   0.5914
     0.6040   0.6040   0.6439   0.6439   0.6809   0.6809   0.7091   0.7092
     0.7179   0.7600   0.7602   0.7747   0.7747   0.7973   0.7974   0.8102
     0.8102   0.8443   0.8444   0.8846   0.9534   0.9534   0.9601   0.9837
     0.9837   0.9981   0.9983   1.0344   1.0345   1.0686   1.0714   1.0714
     1.1335   1.1335   1.1599   1.1606   1.1811   1.1811   1.2261   1.2263
     1.2432   1.2631   1.2700   1.2702   1.2983   1.3381   1.3383   1.3581
     1.3581   1.3646   1.4020   1.4030   1.4130   1.4381   1.4381   1.4450
     1.4779   1.4781   1.5071   1.5438   1.5558   1.5663   1.5664   1.5791
     1.5794   1.5796   1.6176   1.6185   1.6234   1.6359   1.6360   1.6514
     1.6568   1.6569   1.6734   1.6765   1.6871   1.6942   1.7062   1.7150
     1.7151   1.7250   1.7300   1.7305   1.7317   1.7493   1.7497   1.7529
     1.7529   1.7571   1.7773   1.7798   1.7905   1.8022   1.8030   1.8117
     1.8132   1.8267   1.8271   1.8628   1.8629   1.8721   1.8723   1.8734
     1.8878   1.8966   1.8966   1.8977   1.9080   1.9080   1.9133   1.9281
     1.9651   1.9710   1.9761   1.9785   1.9829   1.9831   1.9941   2.0073
     2.0106   2.0116   2.0140   2.0362   2.0363   2.0499   2.0845   2.0873
     2.1180   2.1187   2.1282   2.1283   2.1343   2.1343   2.1972   2.2129
     2.2373   2.2396   2.2465   2.2470   2.2601   2.2601   2.2700   2.2887
     2.2902   2.3000   2.3020   2.3086   2.3225   2.3261   2.3517   2.3535
     2.3709   2.3783   2.3792   2.3863   2.3878   2.4135   2.4190   2.4195
     2.4252   2.4314   2.4557   2.4688   2.4717   2.4775   2.4778   2.4951
     2.4994   2.4997   2.5160   2.5196   2.5197   2.5208   2.5288   2.5324
     2.5571   2.5673   2.6043   2.6078   2.6139   2.6418   2.6426   2.6505
     2.6538   2.6541   2.6550   2.6580   2.6785   2.6787   2.6816   2.6938
     2.6957   2.6987   2.7019   2.7035   2.7288   2.7471   2.7471   2.7518
     2.7612   2.7613   2.7828   2.7833   2.7894   2.7903   2.8336   2.8344
     2.8344   2.8452   2.8452   2.8473   2.8584   2.8593   2.8676   2.8695
     2.8696   2.8707   2.8778   2.8779   2.8789   2.8852   2.8935   2.8936
     2.9110   2.9239   2.9240   2.9247   2.9260   2.9321   2.9335   2.9336
     2.9556   2.9649   2.9701   2.9756   2.9758   2.9806   2.9933   2.9936
     3.0693   3.0829   3.1205   3.2187   3.2412   3.2413   3.3140   3.4018
     3.4019   3.6555   3.7085   3.7091   3.7121   3.7189   4.0211   4.2039
     4.3973   4.6838   4.6842   4.8877   4.9817   4.9890   5.0330   5.7677
     5.7678   5.9821   6.1424   6.1480   6.1670   6.1673   6.4205   6.6718
     6.7050   6.8489   6.8520   7.2728   7.4299   7.4450   7.4792   7.6674
     7.7020   7.7101   7.8973   7.9468   8.1617   8.1655   8.2568   8.3098
     8.3566   8.6361   8.6370   8.7602   8.8043   8.9084   9.1872   9.1882
     9.2957   9.3545   9.5546   9.5837   9.7545   9.7913   9.9092   9.9345
     9.9436   9.9637   9.9960  10.0503  10.2587  10.3376  10.3381  10.4616
    10.4937  10.5024  10.5901  10.5932  10.6771  10.7213  10.7230  10.7931
    10.8684  10.8862  10.8997  11.0952  11.1051  11.2019  11.3942  11.4217
    11.4308  11.4689  11.4797  11.5644  11.6558  11.7472  11.8960  11.9885
    12.0335  12.1304  12.1824  12.2695  12.2866  12.3829  12.4785  12.5102
    12.5170  12.5618  12.5672  12.6529  12.7895  12.7905  12.8310  12.8540
    12.9432  12.9639  13.0798  13.0992  13.1463  13.1761  13.1818  13.2766
    13.3866  13.4593

          k = 0.0000-0.5774 0.0000 ( 61408 PWs)   bands (ev):

  -107.8878-107.8871-107.8843-107.8841-107.8830-107.8821-107.8812-107.8807
  -107.8804-107.8804-107.8802-107.8800-107.8798-107.8790-107.8783-107.8782
  -107.8780-107.8767-107.8764-107.8756-107.8741-107.8740-107.8719-107.8719
  -107.8717-107.8712-107.8711-107.8675-107.8671-107.8650-107.8650-107.8631
  -107.8626-107.8626-107.8626-107.8619-107.6466-107.6456-107.6438-107.6431
  -107.6417-107.6415-107.6397-107.6379-107.6377-107.6286-107.6285-107.6260
  -107.6260-107.6235-107.6235-107.6234-107.6234-107.6234 -65.3387 -65.3384
   -65.3360 -65.3346 -65.3306 -65.3306 -65.3295 -65.3294 -65.3289 -65.3288
   -65.3278 -65.3276 -65.3275 -65.3272 -65.3236 -65.3171 -65.3166 -65.3166
   -65.3161 -65.3160 -65.3158 -65.3158 -65.3149 -65.3147 -65.3124 -65.3123
   -65.3120 -65.3119 -65.3048 -65.3047 -65.3036 -65.3035 -65.3032 -65.3030
   -65.3016 -65.2980 -65.2979 -65.2949 -65.2942 -65.2942 -65.2941 -65.2939
   -65.2938 -65.2931 -65.2912 -65.2911 -65.2906 -65.2905 -65.2903 -65.2901
   -65.2871 -65.2871 -65.2871 -65.2863 -65.2862 -65.2860 -65.2857 -65.2844
   -65.2813 -65.2810 -65.2806 -65.2806 -65.2804 -65.2799 -65.2797 -65.2797
   -65.2797 -65.2796 -65.2795 -65.2790 -65.2766 -65.2765 -65.2762 -65.2761
   -65.2756 -65.2752 -65.2735 -65.2734 -65.2726 -65.2724 -65.2724 -65.2721
   -65.2711 -65.2709 -65.2707 -65.2701 -65.2692 -65.2691 -65.2691 -65.2685
   -65.2685 -65.2682 -65.2681 -65.2652 -65.2650 -65.2650 -65.2649 -65.2636
   -65.2630 -65.2614 -65.2611 -65.2610 -65.2591 -65.2590 -65.2574 -65.2571
   -65.2503 -65.2500 -65.1152 -65.1079 -65.1079 -65.1067 -65.1064 -65.1001
   -65.0923 -65.0922 -65.0922 -65.0922 -65.0887 -65.0885 -65.0770 -65.0768
   -65.0756 -65.0755 -65.0736 -65.0735 -65.0686 -65.0681 -65.0675 -65.0649
   -65.0643 -65.0612 -65.0611 -65.0611 -65.0611 -65.0566 -65.0552 -65.0531
   -65.0528 -65.0527 -65.0500 -65.0500 -65.0410 -65.0409 -65.0219 -65.0208
   -65.0192 -65.0186 -65.0173 -65.0171 -65.0148 -65.0129 -65.0128 -65.0008
   -65.0007 -64.9983 -64.9983 -64.9960 -64.9960 -64.9959 -64.9959 -64.9958
   -12.5049  -9.7728  -9.7670  -6.1853  -6.1698  -4.2037  -3.3151  -3.3149
    -2.7159  -2.7158  -2.6115  -2.2699  -1.8094  -1.8068  -1.7825  -1.7824
    -1.7111  -1.6320  -1.2721  -1.2716  -0.7557  -0.7434  -0.5528  -0.5492
    -0.3534  -0.1699   0.0139   0.0160   0.0278   0.0341   0.0342   0.0343
     0.0344   0.1220   0.1939   0.1952   0.2034   0.2063   0.2134   0.2321
     0.2321   0.2322   0.2323   0.2385   0.2881   0.2882   0.2883   0.2885
     0.3166   0.4151   0.4530   0.4531   0.4533   0.4534   0.4934   0.5350
     0.6302   0.6302   0.6304   0.6304   0.6452   0.6675   0.6683   0.6846
     0.6846   0.6848   0.6848   0.8043   0.8043   0.8044   0.8044   0.8270
     0.8273   0.9161   0.9286   0.9286   0.9286   0.9287   0.9644   0.9644
     1.0090   1.0090   1.0805   1.0806   1.0806   1.0807   1.1410   1.1410
     1.1703   1.1705   1.1914   1.1915   1.1918   1.1919   1.2088   1.2088
     1.2451   1.2467   1.2974   1.3095   1.3099   1.3378   1.3382   1.3585
     1.3594   1.3671   1.3672   1.3674   1.3675   1.4241   1.4246   1.4291
     1.4291   1.4294   1.4294   1.4803   1.4820   1.5037   1.5037   1.5038
     1.5040   1.5135   1.5151   1.5151   1.5735   1.5767   1.5989   1.6001
     1.6008   1.6156   1.6183   1.6511   1.6518   1.6518   1.6520   1.6520
     1.6654   1.6674   1.7151   1.7153   1.7253   1.7256   1.7383   1.7384
     1.7728   1.7731   1.7731   1.7732   1.7958   1.7964   1.7970   1.7971
     1.7976   1.8265   1.8266   1.8270   1.8273   1.8584   1.8586   1.8787
     1.8880   1.8883   1.9500   1.9507   1.9567   1.9569   1.9605   1.9607
     1.9616   1.9616   1.9700   1.9709   1.9771   1.9773   1.9865   2.0035
     2.0047   2.0120   2.0124   2.0129   2.0132   2.0793   2.0841   2.0926
     2.0926   2.1525   2.1723   2.1742   2.1751   2.1753   2.1807   2.1833
     2.1836   2.1843   2.1891   2.1895   2.2130   2.2157   2.2238   2.2534
     2.2549   2.2549   2.2567   2.2745   2.2746   2.2747   2.2747   2.2780
     2.2792   2.3006   2.3008   2.3073   2.3080   2.3261   2.3501   2.3850
     2.4288   2.4308   2.4308   2.4586   2.4586   2.4592   2.4599   2.4908
     2.4916   2.4950   2.5080   2.5306   2.5314   2.5344   2.5345   2.5446
     2.5580   2.5657   2.5712   2.5713   2.5714   2.5716   2.5842   2.6051
     2.6051   2.6064   2.6080   2.6609   2.6610   2.6613   2.6616   2.6717
     2.6725   2.6979   2.6982   2.7278   2.7280   2.7313   2.7319   2.7587
     2.7587   2.7839   2.7864   2.7897   2.8076   2.8473   2.8489   2.8592
     2.8599   2.8689   2.8692   2.8832   2.8968   2.8969   2.9012   2.9014
     2.9027   2.9033   2.9187   2.9234   2.9234   2.9237   2.9238   2.9409
     2.9421   2.9423   2.9480   2.9519   2.9675   2.9705   2.9901   2.9902
     2.9906   2.9914   2.9980   3.0047   3.0271   3.0405   3.0406   3.0412
     3.0412   3.1489   3.1620   3.6803   3.6910   3.6934   3.6976   4.2084
     4.2521   4.2521   4.2523   4.2524   4.5228   4.5231   4.5235   4.5236
     4.8727   4.8761   4.8878   4.9924   5.0137   5.0797   5.0814   5.0823
     5.0833   5.3675   5.7067   5.9603   5.9851   5.9872   6.0576   6.0646
     6.0661   6.0690   6.1239   6.5292   6.5665   7.2781   7.3574   7.3755
     7.3760   7.4157   7.5984   7.9580   7.9824   8.0955   8.2339   8.3759
     8.4980   8.4996   8.5009   8.5138   8.8670   8.8912   8.9050   9.1472
     9.1491   9.1493   9.1559   9.2664   9.4613   9.5746   9.6891   9.7685
     9.7745   9.8065   9.8188   9.8512   9.8795  10.2457  10.3255  10.3335
    10.3787  10.4211  10.4479  10.4520  10.4674  10.8066  10.8748  11.0224
    11.1124  11.1921  11.2380  11.2454  11.3020  11.3615  11.3851  11.3881
    11.4650  11.5331  11.6803  12.0248  12.0924  12.1385  12.1614  12.2097
    12.2309  12.2862  12.4410  12.4903  12.7224  12.8151  12.8426  12.9333
    12.9450  12.9868  13.0144  13.0317  13.0505  13.1759  13.1814  13.1939
    13.1985  13.2547  13.2882  13.3386  13.4194  13.5853  13.6248  13.6264
    13.6812  13.7742

          k = 0.2500-0.7217 0.0000 ( 61343 PWs)   bands (ev):

  -107.8880-107.8863-107.8857-107.8834-107.8821-107.8820-107.8817-107.8811
  -107.8808-107.8803-107.8802-107.8798-107.8795-107.8788-107.8786-107.8782
  -107.8779-107.8770-107.8758-107.8755-107.8753-107.8729-107.8725-107.8718
  -107.8717-107.8712-107.8710-107.8677-107.8665-107.8661-107.8638-107.8635
  -107.8629-107.8626-107.8624-107.8619-107.6467-107.6453-107.6442-107.6427
  -107.6417-107.6415-107.6397-107.6379-107.6377-107.6289-107.6275-107.6274
  -107.6245-107.6245-107.6235-107.6234-107.6234-107.6230 -65.3398 -65.3353
   -65.3349 -65.3340 -65.3337 -65.3327 -65.3325 -65.3311 -65.3294 -65.3278
   -65.3276 -65.3265 -65.3237 -65.3218 -65.3214 -65.3214 -65.3212 -65.3187
   -65.3156 -65.3151 -65.3150 -65.3148 -65.3145 -65.3131 -65.3129 -65.3120
   -65.3111 -65.3110 -65.3083 -65.3079 -65.3029 -65.3027 -65.3022 -65.3015
   -65.2990 -65.2988 -65.2981 -65.2978 -65.2976 -65.2946 -65.2941 -65.2939
   -65.2929 -65.2923 -65.2919 -65.2918 -65.2908 -65.2880 -65.2877 -65.2876
   -65.2874 -65.2874 -65.2872 -65.2859 -65.2857 -65.2854 -65.2852 -65.2837
   -65.2835 -65.2822 -65.2820 -65.2818 -65.2816 -65.2812 -65.2795 -65.2783
   -65.2782 -65.2781 -65.2779 -65.2774 -65.2771 -65.2765 -65.2764 -65.2762
   -65.2760 -65.2748 -65.2746 -65.2738 -65.2733 -65.2732 -65.2728 -65.2714
   -65.2711 -65.2704 -65.2703 -65.2702 -65.2701 -65.2700 -65.2699 -65.2697
   -65.2679 -65.2677 -65.2672 -65.2654 -65.2652 -65.2644 -65.2642 -65.2642
   -65.2634 -65.2632 -65.2611 -65.2600 -65.2600 -65.2591 -65.2554 -65.2535
   -65.2535 -65.2498 -65.1133 -65.1126 -65.1101 -65.1034 -65.1000 -65.0989
   -65.0978 -65.0978 -65.0950 -65.0884 -65.0845 -65.0844 -65.0802 -65.0784
   -65.0771 -65.0768 -65.0721 -65.0711 -65.0705 -65.0698 -65.0649 -65.0638
   -65.0629 -65.0621 -65.0620 -65.0593 -65.0591 -65.0563 -65.0563 -65.0555
   -65.0554 -65.0551 -65.0489 -65.0443 -65.0443 -65.0402 -65.0219 -65.0206
   -65.0196 -65.0183 -65.0173 -65.0171 -65.0148 -65.0129 -65.0128 -65.0011
   -64.9997 -64.9997 -64.9970 -64.9969 -64.9960 -64.9959 -64.9959 -64.9955
   -12.5049  -9.7714  -9.7685  -6.1813  -6.1737  -4.2039  -3.5206  -2.9147
    -2.7145  -2.7143  -2.6113  -2.2697  -2.1401  -2.1400  -1.9921  -1.6946
    -1.6537  -1.2822  -1.2805  -0.9100  -0.7037  -0.7036  -0.3974  -0.3529
    -0.3519  -0.3088  -0.2763  -0.1128  -0.1127  -0.1033   0.0622   0.0628
     0.0818   0.0819   0.0981   0.1479   0.1601   0.1602   0.1773   0.2553
     0.2760   0.2794   0.2828   0.2829   0.2966   0.3570   0.3599   0.4210
     0.4213   0.4331   0.4440   0.4714   0.4714   0.4743   0.4930   0.4937
     0.5615   0.5617   0.5865   0.5885   0.6187   0.6188   0.6435   0.6529
     0.6530   0.7217   0.7217   0.7481   0.7706   0.7809   0.7811   0.8566
     0.8572   0.9078   0.9272   0.9274   0.9569   0.9570   1.0140   1.0232
     1.0234   1.0387   1.0387   1.0535   1.0915   1.1191   1.1191   1.1613
     1.1615   1.1888   1.1943   1.1947   1.1959   1.2121   1.2122   1.2720
     1.2722   1.2750   1.2750   1.2779   1.2907   1.3073   1.3084   1.3217
     1.3221   1.3496   1.3505   1.3733   1.3754   1.3760   1.3950   1.4190
     1.4599   1.4681   1.4683   1.4687   1.4694   1.4985   1.5174   1.5215
     1.5221   1.5590   1.5590   1.5601   1.5629   1.5690   1.5920   1.6134
     1.6134   1.6306   1.6307   1.6573   1.6582   1.6673   1.6674   1.6805
     1.6811   1.6950   1.6952   1.7127   1.7130   1.7275   1.7364   1.7601
     1.7735   1.7755   1.7784   1.7963   1.7988   1.7992   1.8059   1.8144
     1.8149   1.8238   1.8239   1.8380   1.8428   1.8436   1.8437   1.8498
     1.8659   1.8711   1.8944   1.9114   1.9127   1.9207   1.9234   1.9241
     1.9307   1.9317   1.9319   1.9348   1.9400   1.9456   1.9468   1.9478
     2.0070   2.0079   2.0688   2.0694   2.0783   2.0819   2.0821   2.0869
     2.1100   2.1102   2.1270   2.1295   2.1339   2.1532   2.1674   2.1683
     2.1967   2.1971   2.2127   2.2395   2.2407   2.2459   2.2465   2.2502
     2.2516   2.2524   2.2586   2.2610   2.2685   2.2688   2.2969   2.3198
     2.3340   2.3366   2.3380   2.3419   2.3516   2.3548   2.3565   2.3800
     2.3862   2.3944   2.4044   2.4304   2.4332   2.4474   2.4542   2.4562
     2.4651   2.4678   2.4987   2.5074   2.5127   2.5132   2.5397   2.5400
     2.5616   2.5681   2.5687   2.5869   2.5878   2.6106   2.6109   2.6117
     2.6153   2.6179   2.6312   2.6315   2.6360   2.6420   2.6447   2.6619
     2.6998   2.7069   2.7071   2.7094   2.7575   2.7578   2.7676   2.7690
     2.8000   2.8129   2.8133   2.8189   2.8192   2.8342   2.8369   2.8635
     2.8640   2.8642   2.8738   2.8740   2.8856   2.8873   2.8884   2.8887
     2.8903   2.8980   2.8982   2.8988   2.9013   2.9160   2.9165   2.9316
     2.9322   2.9366   2.9426   2.9426   2.9541   2.9701   2.9748   2.9808
     2.9811   2.9983   3.0300   3.0303   3.0405   3.0620   3.0623   3.2158
     3.2197   3.3297   3.3298   3.4320   3.4323   3.5335   3.7570   3.7588
     4.1354   4.1453   4.2407   4.2409   4.2538   4.5166   4.6274   4.6320
     4.6489   4.6490   4.7706   5.0950   5.1226   5.1234   5.5663   5.6072
     5.6252   5.6666   5.8591   5.8792   5.8809   6.0113   6.0166   6.1023
     6.1739   6.5470   6.6258   6.6275   6.8016   6.8588   6.9483   7.0035
     7.0041   7.2995   7.3997   7.4221   7.5590   7.7675   7.8280   7.9256
     8.4221   8.4247   8.4639   8.5284   8.7115   9.0482   9.0868   9.1210
     9.1954   9.2790   9.3276   9.4329   9.4411   9.6019   9.6382   9.6511
     9.7719   9.8189  10.0087  10.1139  10.1352  10.3176  10.3763  10.4661
    10.4917  10.5625  10.6396  10.7614  10.7951  11.0241  11.1254  11.1423
    11.2451  11.2861  11.3970  11.4305  11.4358  11.5832  11.6199  11.6610
    11.6763  11.7571  11.8011  11.8352  11.9681  12.0687  12.0968  12.1800
    12.2596  12.3266  12.3498  12.3814  12.4447  12.4587  12.5251  12.5819
    12.6775  12.7006  12.7866  12.9012  12.9380  12.9487  13.1367  13.2268
    13.2577  13.2837  13.3562  13.3797  13.4521  13.4754  13.5291  13.6094
    13.6440  13.6570

          k =-0.2500 0.1443 0.0000 ( 61417 PWs)   bands (ev):

  -107.8890-107.8854-107.8842-107.8838-107.8833-107.8820-107.8817-107.8813
  -107.8809-107.8801-107.8800-107.8794-107.8793-107.8791-107.8788-107.8782
  -107.8780-107.8777-107.8756-107.8749-107.8739-107.8738-107.8725-107.8724
  -107.8720-107.8709-107.8709-107.8685-107.8658-107.8648-107.8647-107.8635
  -107.8634-107.8629-107.8621-107.8618-107.6473-107.6446-107.6436-107.6431
  -107.6418-107.6418-107.6398-107.6378-107.6377-107.6298-107.6268-107.6257
  -107.6257-107.6243-107.6243-107.6239-107.6228-107.6228 -65.3425 -65.3334
   -65.3329 -65.3317 -65.3306 -65.3305 -65.3300 -65.3299 -65.3268 -65.3267
   -65.3260 -65.3259 -65.3241 -65.3241 -65.3195 -65.3180 -65.3180 -65.3160
   -65.3154 -65.3144 -65.3142 -65.3142 -65.3140 -65.3138 -65.3117 -65.3117
   -65.3113 -65.3111 -65.3070 -65.3070 -65.3040 -65.3039 -65.3037 -65.3026
   -65.3025 -65.3019 -65.3012 -65.3012 -65.2991 -65.2990 -65.2966 -65.2966
   -65.2933 -65.2930 -65.2929 -65.2926 -65.2917 -65.2917 -65.2910 -65.2899
   -65.2896 -65.2886 -65.2884 -65.2871 -65.2869 -65.2868 -65.2860 -65.2853
   -65.2852 -65.2833 -65.2830 -65.2830 -65.2828 -65.2827 -65.2826 -65.2801
   -65.2800 -65.2779 -65.2778 -65.2772 -65.2772 -65.2756 -65.2755 -65.2752
   -65.2747 -65.2745 -65.2744 -65.2742 -65.2740 -65.2739 -65.2739 -65.2722
   -65.2721 -65.2704 -65.2702 -65.2699 -65.2692 -65.2686 -65.2682 -65.2681
   -65.2680 -65.2674 -65.2668 -65.2645 -65.2645 -65.2629 -65.2612 -65.2612
   -65.2612 -65.2603 -65.2600 -65.2577 -65.2576 -65.2569 -65.2543 -65.2538
   -65.2507 -65.2475 -65.1111 -65.1057 -65.1057 -65.1040 -65.1038 -65.0959
   -65.0923 -65.0922 -65.0903 -65.0903 -65.0892 -65.0891 -65.0866 -65.0865
   -65.0835 -65.0772 -65.0772 -65.0715 -65.0715 -65.0686 -65.0686 -65.0682
   -65.0669 -65.0640 -65.0639 -65.0600 -65.0560 -65.0531 -65.0531 -65.0529
   -65.0520 -65.0490 -65.0490 -65.0450 -65.0411 -65.0380 -65.0225 -65.0199
   -65.0191 -65.0186 -65.0174 -65.0173 -65.0148 -65.0129 -65.0128 -65.0019
   -64.9991 -64.9981 -64.9981 -64.9967 -64.9967 -64.9963 -64.9953 -64.9953
   -12.5057  -9.7691  -9.7665  -6.1824  -6.1741  -4.2306  -3.9407  -3.3241
    -2.6394  -2.3806  -2.3376  -2.2661  -1.7892  -1.6661  -1.6297  -1.6266
    -1.6220  -1.2638  -1.1423  -1.1420  -0.9872  -0.5705  -0.5705  -0.4862
    -0.4784  -0.4502  -0.3593  -0.3253  -0.2841  -0.2835  -0.1489  -0.1158
    -0.1113  -0.0135  -0.0090  -0.0088   0.1675   0.1686   0.1974   0.2627
     0.2631   0.2764   0.3163   0.4471   0.4518   0.4816   0.4816   0.5082
     0.5176   0.5176   0.5417   0.5418   0.5886   0.5894   0.5911   0.5914
     0.6040   0.6040   0.6439   0.6439   0.6809   0.6809   0.7091   0.7092
     0.7179   0.7600   0.7602   0.7747   0.7747   0.7973   0.7974   0.8102
     0.8102   0.8443   0.8444   0.8846   0.9534   0.9534   0.9601   0.9837
     0.9837   0.9981   0.9983   1.0344   1.0345   1.0686   1.0714   1.0714
     1.1335   1.1335   1.1599   1.1606   1.1811   1.1811   1.2261   1.2263
     1.2432   1.2631   1.2700   1.2702   1.2983   1.3381   1.3383   1.3581
     1.3581   1.3646   1.4020   1.4030   1.4130   1.4381   1.4381   1.4450
     1.4779   1.4781   1.5071   1.5438   1.5558   1.5663   1.5664   1.5791
     1.5794   1.5796   1.6176   1.6185   1.6234   1.6359   1.6360   1.6514
     1.6568   1.6569   1.6734   1.6765   1.6871   1.6942   1.7062   1.7150
     1.7151   1.7250   1.7300   1.7305   1.7317   1.7493   1.7497   1.7529
     1.7529   1.7571   1.7773   1.7798   1.7905   1.8022   1.8030   1.8117
     1.8132   1.8267   1.8271   1.8628   1.8629   1.8721   1.8723   1.8734
     1.8878   1.8966   1.8966   1.8977   1.9080   1.9080   1.9133   1.9281
     1.9651   1.9710   1.9761   1.9785   1.9829   1.9831   1.9941   2.0073
     2.0106   2.0116   2.0141   2.0362   2.0363   2.0499   2.0845   2.0873
     2.1179   2.1187   2.1282   2.1283   2.1343   2.1343   2.1972   2.2129
     2.2373   2.2396   2.2465   2.2470   2.2601   2.2602   2.2700   2.2887
     2.2902   2.3000   2.3020   2.3086   2.3225   2.3261   2.3517   2.3535
     2.3709   2.3783   2.3792   2.3863   2.3878   2.4135   2.4190   2.4195
     2.4252   2.4314   2.4557   2.4688   2.4717   2.4775   2.4778   2.4951
     2.4994   2.4997   2.5160   2.5196   2.5197   2.5208   2.5288   2.5324
     2.5571   2.5673   2.6043   2.6078   2.6139   2.6418   2.6426   2.6505
     2.6538   2.6541   2.6550   2.6580   2.6785   2.6787   2.6816   2.6938
     2.6957   2.6987   2.7019   2.7035   2.7288   2.7471   2.7471   2.7518
     2.7612   2.7613   2.7828   2.7833   2.7894   2.7903   2.8336   2.8344
     2.8344   2.8452   2.8452   2.8473   2.8584   2.8593   2.8676   2.8695
     2.8696   2.8707   2.8778   2.8779   2.8789   2.8852   2.8935   2.8936
     2.9110   2.9239   2.9240   2.9247   2.9260   2.9321   2.9335   2.9336
     2.9556   2.9649   2.9701   2.9756   2.9758   2.9806   2.9933   2.9936
     3.0693   3.0829   3.1205   3.2187   3.2412   3.2413   3.3140   3.4018
     3.4019   3.6555   3.7085   3.7091   3.7121   3.7189   4.0211   4.2039
     4.3973   4.6838   4.6842   4.8877   4.9817   4.9890   5.0330   5.7677
     5.7678   5.9821   6.1424   6.1480   6.1670   6.1673   6.4205   6.6718
     6.7050   6.8489   6.8520   7.2728   7.4300   7.4450   7.4791   7.6674
     7.7020   7.7101   7.8973   7.9468   8.1617   8.1655   8.2568   8.3098
     8.3566   8.6361   8.6370   8.7602   8.8043   8.9083   9.1872   9.1882
     9.2957   9.3545   9.5547   9.5837   9.7546   9.7913   9.9092   9.9345
     9.9436   9.9637   9.9960  10.0503  10.2587  10.3376  10.3381  10.4616
    10.4936  10.5024  10.5901  10.5932  10.6771  10.7213  10.7230  10.7930
    10.8684  10.8862  10.8997  11.0952  11.1051  11.2019  11.3942  11.4217
    11.4308  11.4689  11.4797  11.5644  11.6558  11.7472  11.8961  11.9884
    12.0335  12.1304  12.1824  12.2695  12.2866  12.3829  12.4785  12.5102
    12.5170  12.5619  12.5672  12.6529  12.7895  12.7905  12.8310  12.8541
    12.9432  12.9639  13.0798  13.0992  13.1463  13.1761  13.1818  13.2766
    13.3866  13.4592

          k = 0.2500 0.1443 0.0000 ( 61417 PWs)   bands (ev):

  -107.8890-107.8854-107.8842-107.8838-107.8833-107.8820-107.8817-107.8813
  -107.8809-107.8801-107.8800-107.8794-107.8793-107.8791-107.8788-107.8782
  -107.8780-107.8777-107.8756-107.8749-107.8739-107.8738-107.8725-107.8724
  -107.8720-107.8709-107.8709-107.8685-107.8658-107.8648-107.8647-107.8635
  -107.8634-107.8629-107.8621-107.8618-107.6473-107.6446-107.6436-107.6431
  -107.6418-107.6418-107.6398-107.6378-107.6377-107.6298-107.6268-107.6257
  -107.6257-107.6243-107.6243-107.6239-107.6228-107.6228 -65.3425 -65.3334
   -65.3329 -65.3317 -65.3306 -65.3305 -65.3300 -65.3299 -65.3268 -65.3267
   -65.3260 -65.3259 -65.3241 -65.3241 -65.3195 -65.3180 -65.3180 -65.3160
   -65.3154 -65.3144 -65.3142 -65.3142 -65.3140 -65.3138 -65.3117 -65.3117
   -65.3113 -65.3111 -65.3070 -65.3070 -65.3040 -65.3039 -65.3037 -65.3026
   -65.3025 -65.3019 -65.3012 -65.3012 -65.2991 -65.2990 -65.2966 -65.2966
   -65.2933 -65.2930 -65.2929 -65.2926 -65.2917 -65.2917 -65.2910 -65.2899
   -65.2896 -65.2886 -65.2884 -65.2871 -65.2869 -65.2868 -65.2860 -65.2853
   -65.2852 -65.2833 -65.2830 -65.2830 -65.2828 -65.2827 -65.2826 -65.2801
   -65.2800 -65.2779 -65.2778 -65.2772 -65.2772 -65.2756 -65.2755 -65.2752
   -65.2747 -65.2745 -65.2744 -65.2742 -65.2740 -65.2739 -65.2739 -65.2722
   -65.2721 -65.2704 -65.2702 -65.2699 -65.2692 -65.2686 -65.2682 -65.2681
   -65.2680 -65.2674 -65.2668 -65.2645 -65.2645 -65.2629 -65.2612 -65.2612
   -65.2612 -65.2603 -65.2600 -65.2577 -65.2576 -65.2569 -65.2543 -65.2538
   -65.2507 -65.2475 -65.1111 -65.1057 -65.1057 -65.1040 -65.1038 -65.0959
   -65.0923 -65.0922 -65.0903 -65.0903 -65.0892 -65.0891 -65.0866 -65.0865
   -65.0835 -65.0772 -65.0772 -65.0715 -65.0715 -65.0686 -65.0686 -65.0682
   -65.0669 -65.0640 -65.0639 -65.0600 -65.0560 -65.0531 -65.0531 -65.0529
   -65.0520 -65.0490 -65.0490 -65.0450 -65.0411 -65.0380 -65.0225 -65.0199
   -65.0191 -65.0186 -65.0174 -65.0173 -65.0148 -65.0129 -65.0128 -65.0019
   -64.9991 -64.9981 -64.9981 -64.9967 -64.9967 -64.9963 -64.9953 -64.9953
   -12.5057  -9.7691  -9.7664  -6.1823  -6.1741  -4.2306  -3.9407  -3.3241
    -2.6394  -2.3806  -2.3376  -2.2661  -1.7892  -1.6662  -1.6297  -1.6266
    -1.6220  -1.2638  -1.1423  -1.1420  -0.9872  -0.5705  -0.5705  -0.4862
    -0.4784  -0.4502  -0.3593  -0.3253  -0.2841  -0.2835  -0.1489  -0.1158
    -0.1113  -0.0135  -0.0090  -0.0088   0.1675   0.1686   0.1974   0.2627
     0.2631   0.2763   0.3164   0.4471   0.4518   0.4816   0.4816   0.5082
     0.5176   0.5176   0.5417   0.5418   0.5886   0.5894   0.5911   0.5914
     0.6040   0.6040   0.6439   0.6439   0.6809   0.6809   0.7091   0.7092
     0.7179   0.7600   0.7602   0.7747   0.7747   0.7973   0.7974   0.8102
     0.8102   0.8443   0.8444   0.8846   0.9534   0.9534   0.9601   0.9837
     0.9837   0.9981   0.9983   1.0344   1.0345   1.0686   1.0714   1.0714
     1.1335   1.1335   1.1599   1.1606   1.1811   1.1811   1.2261   1.2263
     1.2432   1.2631   1.2700   1.2702   1.2983   1.3381   1.3383   1.3581
     1.3581   1.3646   1.4020   1.4030   1.4130   1.4381   1.4381   1.4450
     1.4779   1.4781   1.5071   1.5438   1.5558   1.5663   1.5664   1.5791
     1.5794   1.5796   1.6176   1.6185   1.6234   1.6359   1.6360   1.6514
     1.6568   1.6569   1.6734   1.6765   1.6871   1.6942   1.7062   1.7150
     1.7151   1.7250   1.7300   1.7305   1.7317   1.7493   1.7497   1.7529
     1.7529   1.7571   1.7773   1.7798   1.7905   1.8022   1.8030   1.8117
     1.8132   1.8267   1.8271   1.8628   1.8629   1.8721   1.8723   1.8734
     1.8878   1.8966   1.8966   1.8977   1.9080   1.9080   1.9133   1.9281
     1.9651   1.9710   1.9761   1.9785   1.9829   1.9831   1.9941   2.0073
     2.0106   2.0116   2.0141   2.0362   2.0363   2.0499   2.0845   2.0873
     2.1179   2.1187   2.1282   2.1283   2.1343   2.1343   2.1972   2.2129
     2.2373   2.2396   2.2465   2.2470   2.2601   2.2602   2.2700   2.2887
     2.2902   2.3000   2.3020   2.3086   2.3225   2.3261   2.3517   2.3535
     2.3709   2.3783   2.3792   2.3863   2.3878   2.4135   2.4190   2.4195
     2.4252   2.4314   2.4557   2.4688   2.4717   2.4775   2.4778   2.4951
     2.4994   2.4997   2.5160   2.5196   2.5197   2.5208   2.5288   2.5324
     2.5571   2.5673   2.6043   2.6078   2.6139   2.6418   2.6426   2.6505
     2.6538   2.6541   2.6550   2.6580   2.6785   2.6787   2.6816   2.6938
     2.6957   2.6987   2.7019   2.7035   2.7288   2.7471   2.7471   2.7518
     2.7612   2.7613   2.7828   2.7833   2.7894   2.7903   2.8336   2.8344
     2.8344   2.8452   2.8452   2.8473   2.8584   2.8593   2.8676   2.8695
     2.8696   2.8707   2.8778   2.8779   2.8789   2.8852   2.8935   2.8936
     2.9110   2.9239   2.9240   2.9247   2.9260   2.9321   2.9335   2.9336
     2.9556   2.9649   2.9701   2.9756   2.9758   2.9806   2.9933   2.9936
     3.0693   3.0829   3.1205   3.2187   3.2412   3.2413   3.3140   3.4018
     3.4019   3.6555   3.7085   3.7091   3.7121   3.7189   4.0211   4.2039
     4.3973   4.6838   4.6842   4.8877   4.9817   4.9890   5.0330   5.7677
     5.7678   5.9821   6.1424   6.1480   6.1670   6.1673   6.4205   6.6718
     6.7050   6.8489   6.8520   7.2728   7.4300   7.4450   7.4791   7.6674
     7.7020   7.7101   7.8973   7.9468   8.1617   8.1655   8.2568   8.3098
     8.3566   8.6361   8.6370   8.7602   8.8043   8.9083   9.1872   9.1882
     9.2957   9.3545   9.5547   9.5837   9.7546   9.7913   9.9092   9.9345
     9.9436   9.9637   9.9960  10.0503  10.2587  10.3376  10.3381  10.4616
    10.4936  10.5024  10.5901  10.5932  10.6771  10.7213  10.7230  10.7930
    10.8684  10.8862  10.8997  11.0952  11.1051  11.2019  11.3942  11.4217
    11.4308  11.4689  11.4797  11.5644  11.6558  11.7472  11.8961  11.9885
    12.0335  12.1304  12.1824  12.2695  12.2866  12.3829  12.4785  12.5102
    12.5170  12.5619  12.5672  12.6529  12.7895  12.7905  12.8310  12.8541
    12.9432  12.9639  13.0798  13.0992  13.1463  13.1761  13.1818  13.2766
    13.3866  13.4592

          k = 0.5000-0.2887 0.0000 ( 61408 PWs)   bands (ev):

  -107.8878-107.8871-107.8843-107.8841-107.8830-107.8821-107.8811-107.8807
  -107.8804-107.8804-107.8802-107.8800-107.8798-107.8790-107.8783-107.8782
  -107.8780-107.8767-107.8764-107.8756-107.8741-107.8740-107.8719-107.8719
  -107.8717-107.8712-107.8711-107.8675-107.8671-107.8650-107.8650-107.8631
  -107.8626-107.8626-107.8626-107.8619-107.6466-107.6456-107.6437-107.6431
  -107.6417-107.6415-107.6397-107.6379-107.6377-107.6286-107.6285-107.6260
  -107.6260-107.6235-107.6235-107.6234-107.6234-107.6234 -65.3387 -65.3384
   -65.3360 -65.3346 -65.3306 -65.3306 -65.3295 -65.3294 -65.3289 -65.3288
   -65.3278 -65.3276 -65.3275 -65.3272 -65.3236 -65.3171 -65.3166 -65.3166
   -65.3161 -65.3160 -65.3158 -65.3158 -65.3149 -65.3147 -65.3124 -65.3123
   -65.3120 -65.3119 -65.3048 -65.3047 -65.3036 -65.3035 -65.3032 -65.3030
   -65.3016 -65.2980 -65.2979 -65.2949 -65.2942 -65.2942 -65.2941 -65.2939
   -65.2938 -65.2931 -65.2912 -65.2911 -65.2906 -65.2905 -65.2903 -65.2901
   -65.2871 -65.2871 -65.2871 -65.2863 -65.2862 -65.2860 -65.2857 -65.2844
   -65.2813 -65.2810 -65.2806 -65.2806 -65.2804 -65.2799 -65.2797 -65.2797
   -65.2797 -65.2796 -65.2795 -65.2790 -65.2766 -65.2765 -65.2762 -65.2761
   -65.2756 -65.2752 -65.2735 -65.2734 -65.2726 -65.2724 -65.2724 -65.2721
   -65.2711 -65.2709 -65.2707 -65.2701 -65.2692 -65.2691 -65.2691 -65.2685
   -65.2685 -65.2682 -65.2681 -65.2652 -65.2650 -65.2650 -65.2649 -65.2636
   -65.2630 -65.2614 -65.2611 -65.2610 -65.2591 -65.2590 -65.2574 -65.2571
   -65.2503 -65.2500 -65.1152 -65.1079 -65.1079 -65.1067 -65.1064 -65.1001
   -65.0923 -65.0922 -65.0922 -65.0922 -65.0887 -65.0885 -65.0770 -65.0768
   -65.0756 -65.0755 -65.0736 -65.0735 -65.0686 -65.0681 -65.0675 -65.0649
   -65.0643 -65.0612 -65.0611 -65.0611 -65.0611 -65.0566 -65.0552 -65.0531
   -65.0528 -65.0527 -65.0500 -65.0500 -65.0410 -65.0409 -65.0219 -65.0208
   -65.0192 -65.0186 -65.0173 -65.0171 -65.0148 -65.0129 -65.0128 -65.0008
   -65.0007 -64.9983 -64.9983 -64.9960 -64.9960 -64.9959 -64.9959 -64.9958
   -12.5049  -9.7726  -9.7672  -6.1857  -6.1694  -4.2037  -3.3151  -3.3149
    -2.7159  -2.7158  -2.6115  -2.2699  -1.8094  -1.8068  -1.7825  -1.7824
    -1.7111  -1.6320  -1.2721  -1.2716  -0.7557  -0.7434  -0.5528  -0.5492
    -0.3534  -0.1699   0.0139   0.0160   0.0278   0.0341   0.0342   0.0343
     0.0344   0.1220   0.1939   0.1952   0.2034   0.2063   0.2134   0.2321
     0.2321   0.2322   0.2323   0.2387   0.2881   0.2882   0.2883   0.2885
     0.3163   0.4151   0.4530   0.4531   0.4533   0.4534   0.4934   0.5350
     0.6302   0.6302   0.6304   0.6304   0.6452   0.6675   0.6683   0.6846
     0.6846   0.6848   0.6848   0.8043   0.8043   0.8044   0.8044   0.8270
     0.8273   0.9161   0.9286   0.9286   0.9286   0.9287   0.9644   0.9644
     1.0090   1.0090   1.0805   1.0806   1.0806   1.0807   1.1410   1.1410
     1.1703   1.1705   1.1914   1.1915   1.1918   1.1919   1.2088   1.2088
     1.2451   1.2467   1.2974   1.3095   1.3099   1.3378   1.3382   1.3585
     1.3594   1.3671   1.3672   1.3674   1.3675   1.4241   1.4246   1.4291
     1.4291   1.4294   1.4294   1.4803   1.4820   1.5037   1.5037   1.5038
     1.5040   1.5135   1.5151   1.5151   1.5735   1.5767   1.5989   1.6001
     1.6008   1.6156   1.6183   1.6511   1.6517   1.6518   1.6520   1.6520
     1.6654   1.6674   1.7151   1.7153   1.7253   1.7256   1.7383   1.7384
     1.7729   1.7731   1.7731   1.7732   1.7958   1.7964   1.7969   1.7971
     1.7976   1.8265   1.8266   1.8270   1.8273   1.8584   1.8587   1.8787
     1.8880   1.8883   1.9500   1.9507   1.9567   1.9569   1.9605   1.9607
     1.9616   1.9616   1.9700   1.9709   1.9771   1.9773   1.9865   2.0035
     2.0047   2.0120   2.0124   2.0129   2.0132   2.0793   2.0841   2.0926
     2.0926   2.1525   2.1723   2.1742   2.1751   2.1753   2.1807   2.1833
     2.1836   2.1843   2.1891   2.1895   2.2130   2.2157   2.2238   2.2534
     2.2549   2.2549   2.2567   2.2745   2.2746   2.2747   2.2747   2.2780
     2.2792   2.3006   2.3008   2.3073   2.3080   2.3261   2.3500   2.3850
     2.4289   2.4308   2.4308   2.4586   2.4586   2.4592   2.4599   2.4908
     2.4916   2.4950   2.5080   2.5306   2.5314   2.5344   2.5345   2.5445
     2.5579   2.5657   2.5712   2.5713   2.5714   2.5716   2.5842   2.6051
     2.6051   2.6064   2.6080   2.6609   2.6610   2.6613   2.6616   2.6717
     2.6725   2.6979   2.6982   2.7278   2.7280   2.7312   2.7319   2.7587
     2.7587   2.7839   2.7864   2.7897   2.8076   2.8473   2.8489   2.8592
     2.8599   2.8689   2.8692   2.8832   2.8968   2.8969   2.9012   2.9014
     2.9027   2.9033   2.9187   2.9234   2.9234   2.9237   2.9238   2.9409
     2.9421   2.9423   2.9480   2.9519   2.9675   2.9705   2.9901   2.9902
     2.9906   2.9914   2.9980   3.0047   3.0271   3.0405   3.0406   3.0412
     3.0412   3.1489   3.1620   3.6803   3.6910   3.6934   3.6976   4.2084
     4.2521   4.2521   4.2523   4.2524   4.5228   4.5231   4.5235   4.5236
     4.8727   4.8761   4.8878   4.9924   5.0137   5.0797   5.0814   5.0823
     5.0833   5.3675   5.7067   5.9603   5.9851   5.9872   6.0576   6.0647
     6.0661   6.0690   6.1239   6.5292   6.5665   7.2781   7.3574   7.3755
     7.3760   7.4156   7.5986   7.9581   7.9823   8.0955   8.2339   8.3758
     8.4980   8.4996   8.5009   8.5138   8.8670   8.8912   8.9050   9.1472
     9.1491   9.1493   9.1559   9.2663   9.4614   9.5746   9.6892   9.7685
     9.7745   9.8065   9.8188   9.8513   9.8795  10.2457  10.3255  10.3335
    10.3787  10.4211  10.4479  10.4520  10.4674  10.8066  10.8747  11.0225
    11.1124  11.1921  11.2380  11.2454  11.3020  11.3615  11.3852  11.3882
    11.4650  11.5331  11.6803  12.0248  12.0924  12.1385  12.1614  12.2097
    12.2309  12.2863  12.4410  12.4906  12.7224  12.8152  12.8426  12.9333
    12.9450  12.9868  13.0144  13.0317  13.0505  13.1759  13.1813  13.1939
    13.1985  13.2548  13.2882  13.3383  13.4194  13.5852  13.6248  13.6264
    13.6812  13.7742

          k =-0.5000-0.2887 0.0000 ( 61408 PWs)   bands (ev):

  -107.8878-107.8871-107.8843-107.8841-107.8830-107.8821-107.8811-107.8807
  -107.8804-107.8804-107.8802-107.8800-107.8798-107.8790-107.8783-107.8782
  -107.8780-107.8767-107.8764-107.8756-107.8741-107.8740-107.8719-107.8719
  -107.8717-107.8712-107.8711-107.8675-107.8671-107.8650-107.8650-107.8631
  -107.8626-107.8626-107.8626-107.8619-107.6466-107.6456-107.6437-107.6431
  -107.6417-107.6415-107.6397-107.6379-107.6377-107.6286-107.6285-107.6260
  -107.6260-107.6235-107.6235-107.6234-107.6234-107.6234 -65.3387 -65.3384
   -65.3360 -65.3346 -65.3306 -65.3306 -65.3295 -65.3294 -65.3289 -65.3288
   -65.3278 -65.3276 -65.3275 -65.3272 -65.3236 -65.3171 -65.3166 -65.3166
   -65.3161 -65.3160 -65.3158 -65.3158 -65.3149 -65.3147 -65.3124 -65.3123
   -65.3120 -65.3119 -65.3048 -65.3047 -65.3036 -65.3035 -65.3032 -65.3030
   -65.3016 -65.2980 -65.2979 -65.2949 -65.2942 -65.2942 -65.2941 -65.2939
   -65.2938 -65.2931 -65.2912 -65.2911 -65.2906 -65.2905 -65.2903 -65.2901
   -65.2871 -65.2871 -65.2871 -65.2863 -65.2862 -65.2860 -65.2857 -65.2844
   -65.2813 -65.2810 -65.2806 -65.2806 -65.2804 -65.2799 -65.2797 -65.2797
   -65.2797 -65.2796 -65.2795 -65.2790 -65.2766 -65.2765 -65.2762 -65.2761
   -65.2756 -65.2752 -65.2735 -65.2734 -65.2726 -65.2724 -65.2724 -65.2721
   -65.2711 -65.2709 -65.2707 -65.2701 -65.2692 -65.2691 -65.2691 -65.2685
   -65.2685 -65.2682 -65.2681 -65.2652 -65.2650 -65.2650 -65.2649 -65.2636
   -65.2630 -65.2614 -65.2611 -65.2610 -65.2591 -65.2590 -65.2574 -65.2571
   -65.2503 -65.2500 -65.1152 -65.1079 -65.1079 -65.1067 -65.1064 -65.1001
   -65.0923 -65.0922 -65.0922 -65.0922 -65.0887 -65.0885 -65.0770 -65.0768
   -65.0756 -65.0755 -65.0736 -65.0735 -65.0686 -65.0681 -65.0675 -65.0649
   -65.0643 -65.0612 -65.0611 -65.0611 -65.0611 -65.0566 -65.0552 -65.0531
   -65.0528 -65.0527 -65.0500 -65.0500 -65.0410 -65.0409 -65.0219 -65.0208
   -65.0192 -65.0186 -65.0173 -65.0171 -65.0148 -65.0129 -65.0128 -65.0008
   -65.0007 -64.9983 -64.9983 -64.9960 -64.9960 -64.9959 -64.9959 -64.9958
   -12.5049  -9.7727  -9.7672  -6.1856  -6.1695  -4.2037  -3.3151  -3.3149
    -2.7159  -2.7158  -2.6115  -2.2699  -1.8094  -1.8068  -1.7825  -1.7824
    -1.7112  -1.6320  -1.2721  -1.2716  -0.7557  -0.7434  -0.5528  -0.5492
    -0.3534  -0.1699   0.0139   0.0160   0.0278   0.0341   0.0342   0.0343
     0.0344   0.1220   0.1939   0.1952   0.2034   0.2063   0.2134   0.2321
     0.2321   0.2322   0.2323   0.2386   0.2881   0.2882   0.2883   0.2885
     0.3164   0.4151   0.4530   0.4531   0.4533   0.4534   0.4934   0.5350
     0.6302   0.6302   0.6304   0.6304   0.6452   0.6675   0.6683   0.6846
     0.6846   0.6848   0.6848   0.8043   0.8043   0.8044   0.8044   0.8270
     0.8273   0.9161   0.9286   0.9286   0.9286   0.9287   0.9644   0.9644
     1.0090   1.0090   1.0805   1.0806   1.0806   1.0807   1.1410   1.1410
     1.1703   1.1705   1.1914   1.1915   1.1918   1.1919   1.2088   1.2088
     1.2451   1.2467   1.2974   1.3095   1.3099   1.3378   1.3382   1.3585
     1.3594   1.3671   1.3672   1.3674   1.3675   1.4241   1.4246   1.4291
     1.4291   1.4294   1.4294   1.4803   1.4820   1.5037   1.5037   1.5038
     1.5040   1.5135   1.5151   1.5151   1.5735   1.5767   1.5989   1.6001
     1.6008   1.6156   1.6183   1.6511   1.6517   1.6518   1.6520   1.6520
     1.6654   1.6674   1.7151   1.7153   1.7253   1.7256   1.7383   1.7384
     1.7729   1.7731   1.7731   1.7732   1.7958   1.7964   1.7969   1.7971
     1.7976   1.8265   1.8266   1.8270   1.8273   1.8584   1.8587   1.8787
     1.8880   1.8883   1.9500   1.9507   1.9567   1.9569   1.9605   1.9607
     1.9616   1.9616   1.9700   1.9709   1.9771   1.9773   1.9865   2.0035
     2.0047   2.0120   2.0124   2.0129   2.0132   2.0793   2.0841   2.0926
     2.0926   2.1525   2.1723   2.1742   2.1751   2.1753   2.1807   2.1833
     2.1836   2.1843   2.1891   2.1895   2.2130   2.2157   2.2238   2.2534
     2.2549   2.2549   2.2567   2.2745   2.2746   2.2747   2.2747   2.2780
     2.2792   2.3006   2.3008   2.3073   2.3080   2.3261   2.3500   2.3850
     2.4289   2.4308   2.4308   2.4586   2.4586   2.4592   2.4599   2.4908
     2.4916   2.4950   2.5080   2.5306   2.5314   2.5344   2.5345   2.5445
     2.5579   2.5657   2.5712   2.5713   2.5714   2.5716   2.5842   2.6051
     2.6051   2.6064   2.6080   2.6609   2.6610   2.6613   2.6616   2.6717
     2.6725   2.6979   2.6982   2.7278   2.7280   2.7312   2.7319   2.7587
     2.7587   2.7839   2.7864   2.7897   2.8076   2.8473   2.8489   2.8592
     2.8599   2.8689   2.8692   2.8832   2.8968   2.8969   2.9012   2.9014
     2.9027   2.9033   2.9187   2.9234   2.9234   2.9237   2.9238   2.9409
     2.9421   2.9423   2.9480   2.9519   2.9675   2.9705   2.9901   2.9902
     2.9906   2.9914   2.9980   3.0047   3.0271   3.0405   3.0406   3.0412
     3.0412   3.1489   3.1620   3.6803   3.6910   3.6934   3.6976   4.2084
     4.2521   4.2521   4.2523   4.2524   4.5228   4.5231   4.5235   4.5236
     4.8727   4.8761   4.8878   4.9924   5.0137   5.0797   5.0814   5.0823
     5.0833   5.3675   5.7067   5.9603   5.9851   5.9872   6.0576   6.0647
     6.0661   6.0690   6.1239   6.5292   6.5665   7.2781   7.3574   7.3755
     7.3760   7.4156   7.5986   7.9581   7.9824   8.0955   8.2339   8.3758
     8.4980   8.4996   8.5009   8.5138   8.8670   8.8912   8.9050   9.1472
     9.1491   9.1493   9.1559   9.2663   9.4614   9.5746   9.6892   9.7685
     9.7745   9.8065   9.8188   9.8513   9.8795  10.2457  10.3255  10.3335
    10.3787  10.4211  10.4479  10.4520  10.4674  10.8066  10.8748  11.0225
    11.1124  11.1921  11.2380  11.2454  11.3020  11.3616  11.3852  11.3882
    11.4650  11.5331  11.6803  12.0248  12.0924  12.1385  12.1614  12.2097
    12.2309  12.2863  12.4410  12.4905  12.7223  12.8153  12.8426  12.9333
    12.9450  12.9868  13.0144  13.0317  13.0505  13.1759  13.1814  13.1939
    13.1985  13.2548  13.2882  13.3383  13.4194  13.5852  13.6248  13.6264
    13.6811  13.7742

          k =-0.2500-0.7217 0.0000 ( 61343 PWs)   bands (ev):

  -107.8880-107.8863-107.8857-107.8834-107.8821-107.8820-107.8817-107.8811
  -107.8808-107.8803-107.8802-107.8798-107.8795-107.8788-107.8786-107.8782
  -107.8779-107.8770-107.8758-107.8755-107.8753-107.8729-107.8725-107.8718
  -107.8717-107.8712-107.8710-107.8677-107.8665-107.8661-107.8638-107.8635
  -107.8629-107.8626-107.8624-107.8619-107.6467-107.6453-107.6442-107.6427
  -107.6417-107.6415-107.6397-107.6379-107.6377-107.6289-107.6275-107.6274
  -107.6245-107.6245-107.6235-107.6234-107.6234-107.6230 -65.3398 -65.3353
   -65.3349 -65.3340 -65.3337 -65.3327 -65.3325 -65.3311 -65.3294 -65.3278
   -65.3276 -65.3265 -65.3237 -65.3218 -65.3214 -65.3214 -65.3212 -65.3187
   -65.3156 -65.3151 -65.3150 -65.3148 -65.3145 -65.3131 -65.3129 -65.3120
   -65.3111 -65.3110 -65.3083 -65.3079 -65.3029 -65.3027 -65.3022 -65.3015
   -65.2990 -65.2988 -65.2981 -65.2978 -65.2976 -65.2946 -65.2941 -65.2939
   -65.2929 -65.2923 -65.2919 -65.2918 -65.2908 -65.2880 -65.2877 -65.2876
   -65.2874 -65.2874 -65.2872 -65.2859 -65.2857 -65.2854 -65.2852 -65.2837
   -65.2835 -65.2822 -65.2820 -65.2818 -65.2816 -65.2812 -65.2795 -65.2783
   -65.2782 -65.2781 -65.2779 -65.2774 -65.2771 -65.2765 -65.2764 -65.2762
   -65.2760 -65.2748 -65.2746 -65.2738 -65.2733 -65.2732 -65.2728 -65.2714
   -65.2711 -65.2704 -65.2703 -65.2702 -65.2701 -65.2700 -65.2699 -65.2697
   -65.2679 -65.2677 -65.2672 -65.2654 -65.2652 -65.2644 -65.2642 -65.2642
   -65.2634 -65.2632 -65.2611 -65.2600 -65.2600 -65.2591 -65.2554 -65.2535
   -65.2535 -65.2498 -65.1133 -65.1126 -65.1101 -65.1034 -65.1000 -65.0989
   -65.0978 -65.0978 -65.0950 -65.0884 -65.0845 -65.0844 -65.0802 -65.0784
   -65.0771 -65.0768 -65.0721 -65.0711 -65.0705 -65.0698 -65.0649 -65.0638
   -65.0629 -65.0621 -65.0620 -65.0593 -65.0591 -65.0563 -65.0563 -65.0555
   -65.0554 -65.0551 -65.0489 -65.0443 -65.0443 -65.0402 -65.0219 -65.0206
   -65.0196 -65.0183 -65.0173 -65.0171 -65.0148 -65.0129 -65.0128 -65.0011
   -64.9997 -64.9997 -64.9970 -64.9969 -64.9960 -64.9959 -64.9959 -64.9955
   -12.5049  -9.7714  -9.7685  -6.1814  -6.1737  -4.2039  -3.5206  -2.9147
    -2.7145  -2.7143  -2.6113  -2.2697  -2.1401  -2.1400  -1.9921  -1.6945
    -1.6537  -1.2822  -1.2805  -0.9100  -0.7037  -0.7036  -0.3974  -0.3529
    -0.3519  -0.3088  -0.2763  -0.1128  -0.1127  -0.1033   0.0622   0.0628
     0.0818   0.0819   0.0981   0.1479   0.1601   0.1602   0.1773   0.2554
     0.2760   0.2794   0.2828   0.2829   0.2965   0.3570   0.3599   0.4210
     0.4213   0.4331   0.4440   0.4714   0.4714   0.4743   0.4930   0.4937
     0.5615   0.5617   0.5865   0.5885   0.6187   0.6188   0.6435   0.6529
     0.6530   0.7217   0.7217   0.7481   0.7706   0.7809   0.7811   0.8566
     0.8572   0.9078   0.9272   0.9274   0.9569   0.9570   1.0140   1.0232
     1.0234   1.0387   1.0387   1.0535   1.0915   1.1191   1.1191   1.1613
     1.1615   1.1888   1.1943   1.1947   1.1959   1.2121   1.2122   1.2720
     1.2722   1.2750   1.2750   1.2779   1.2907   1.3073   1.3084   1.3217
     1.3221   1.3496   1.3505   1.3733   1.3754   1.3760   1.3950   1.4190
     1.4599   1.4681   1.4683   1.4687   1.4694   1.4985   1.5174   1.5215
     1.5221   1.5590   1.5590   1.5601   1.5629   1.5690   1.5920   1.6134
     1.6134   1.6306   1.6307   1.6573   1.6582   1.6673   1.6674   1.6805
     1.6811   1.6950   1.6952   1.7127   1.7130   1.7275   1.7364   1.7601
     1.7735   1.7755   1.7784   1.7963   1.7988   1.7992   1.8059   1.8144
     1.8149   1.8238   1.8239   1.8380   1.8428   1.8436   1.8437   1.8498
     1.8659   1.8711   1.8944   1.9114   1.9127   1.9207   1.9234   1.9241
     1.9307   1.9317   1.9319   1.9348   1.9400   1.9456   1.9468   1.9478
     2.0070   2.0079   2.0688   2.0694   2.0783   2.0819   2.0821   2.0869
     2.1100   2.1102   2.1270   2.1295   2.1339   2.1532   2.1674   2.1683
     2.1967   2.1971   2.2127   2.2395   2.2407   2.2459   2.2465   2.2502
     2.2516   2.2524   2.2586   2.2610   2.2685   2.2688   2.2969   2.3198
     2.3340   2.3366   2.3380   2.3419   2.3516   2.3548   2.3565   2.3800
     2.3862   2.3944   2.4044   2.4304   2.4332   2.4474   2.4542   2.4562
     2.4651   2.4678   2.4987   2.5074   2.5127   2.5132   2.5396   2.5400
     2.5616   2.5681   2.5687   2.5869   2.5878   2.6106   2.6109   2.6117
     2.6153   2.6179   2.6312   2.6315   2.6360   2.6420   2.6447   2.6619
     2.6998   2.7069   2.7071   2.7094   2.7575   2.7578   2.7676   2.7690
     2.8000   2.8129   2.8133   2.8189   2.8192   2.8342   2.8369   2.8635
     2.8640   2.8642   2.8738   2.8740   2.8856   2.8873   2.8884   2.8887
     2.8903   2.8980   2.8982   2.8988   2.9013   2.9160   2.9165   2.9316
     2.9322   2.9366   2.9426   2.9426   2.9541   2.9701   2.9748   2.9808
     2.9811   2.9983   3.0300   3.0303   3.0405   3.0620   3.0623   3.2158
     3.2197   3.3297   3.3298   3.4320   3.4323   3.5335   3.7570   3.7588
     4.1354   4.1453   4.2407   4.2409   4.2538   4.5166   4.6274   4.6320
     4.6489   4.6490   4.7706   5.0950   5.1226   5.1234   5.5663   5.6072
     5.6252   5.6666   5.8591   5.8792   5.8809   6.0113   6.0166   6.1023
     6.1739   6.5470   6.6258   6.6275   6.8016   6.8588   6.9483   7.0035
     7.0041   7.2995   7.3997   7.4221   7.5590   7.7675   7.8280   7.9256
     8.4221   8.4247   8.4639   8.5284   8.7115   9.0482   9.0868   9.1210
     9.1954   9.2790   9.3276   9.4329   9.4411   9.6019   9.6382   9.6511
     9.7719   9.8189  10.0087  10.1139  10.1352  10.3176  10.3763  10.4661
    10.4917  10.5625  10.6396  10.7614  10.7951  11.0241  11.1254  11.1423
    11.2451  11.2861  11.3970  11.4306  11.4358  11.5831  11.6199  11.6610
    11.6763  11.7571  11.8011  11.8353  11.9681  12.0687  12.0968  12.1800
    12.2597  12.3266  12.3498  12.3814  12.4447  12.4588  12.5251  12.5819
    12.6775  12.7006  12.7866  12.9012  12.9380  12.9487  13.1367  13.2268
    13.2577  13.2838  13.3562  13.3797  13.4521  13.4754  13.5292  13.6094
    13.6440  13.6570

          k =-0.5000-0.5774 0.0000 ( 61343 PWs)   bands (ev):

  -107.8880-107.8863-107.8857-107.8834-107.8821-107.8820-107.8817-107.8811
  -107.8808-107.8803-107.8802-107.8798-107.8795-107.8788-107.8786-107.8782
  -107.8779-107.8770-107.8758-107.8755-107.8753-107.8729-107.8725-107.8719
  -107.8717-107.8712-107.8710-107.8677-107.8665-107.8661-107.8638-107.8635
  -107.8629-107.8626-107.8624-107.8619-107.6467-107.6453-107.6442-107.6427
  -107.6417-107.6415-107.6397-107.6379-107.6377-107.6289-107.6275-107.6274
  -107.6245-107.6245-107.6235-107.6234-107.6234-107.6230 -65.3398 -65.3353
   -65.3349 -65.3340 -65.3337 -65.3327 -65.3325 -65.3311 -65.3294 -65.3278
   -65.3276 -65.3265 -65.3237 -65.3218 -65.3214 -65.3214 -65.3212 -65.3187
   -65.3156 -65.3151 -65.3150 -65.3148 -65.3145 -65.3131 -65.3129 -65.3120
   -65.3111 -65.3110 -65.3083 -65.3079 -65.3029 -65.3027 -65.3022 -65.3015
   -65.2990 -65.2988 -65.2981 -65.2978 -65.2976 -65.2946 -65.2941 -65.2939
   -65.2929 -65.2923 -65.2919 -65.2918 -65.2908 -65.2880 -65.2877 -65.2876
   -65.2874 -65.2874 -65.2872 -65.2859 -65.2857 -65.2854 -65.2852 -65.2837
   -65.2835 -65.2822 -65.2820 -65.2818 -65.2816 -65.2812 -65.2795 -65.2783
   -65.2782 -65.2781 -65.2779 -65.2774 -65.2771 -65.2765 -65.2764 -65.2762
   -65.2760 -65.2748 -65.2746 -65.2738 -65.2733 -65.2732 -65.2728 -65.2714
   -65.2711 -65.2704 -65.2703 -65.2702 -65.2701 -65.2700 -65.2699 -65.2697
   -65.2679 -65.2677 -65.2672 -65.2654 -65.2652 -65.2644 -65.2642 -65.2642
   -65.2634 -65.2632 -65.2611 -65.2600 -65.2600 -65.2591 -65.2554 -65.2535
   -65.2535 -65.2498 -65.1133 -65.1126 -65.1101 -65.1034 -65.1000 -65.0989
   -65.0978 -65.0978 -65.0950 -65.0884 -65.0845 -65.0844 -65.0802 -65.0784
   -65.0771 -65.0768 -65.0721 -65.0711 -65.0705 -65.0698 -65.0649 -65.0638
   -65.0629 -65.0621 -65.0620 -65.0593 -65.0591 -65.0563 -65.0563 -65.0555
   -65.0554 -65.0551 -65.0489 -65.0443 -65.0443 -65.0402 -65.0219 -65.0206
   -65.0196 -65.0183 -65.0173 -65.0171 -65.0148 -65.0129 -65.0127 -65.0011
   -64.9997 -64.9997 -64.9970 -64.9969 -64.9960 -64.9959 -64.9959 -64.9955
   -12.5049  -9.7712  -9.7687  -6.1818  -6.1733  -4.2039  -3.5206  -2.9147
    -2.7145  -2.7143  -2.6113  -2.2697  -2.1401  -2.1400  -1.9921  -1.6945
    -1.6537  -1.2822  -1.2805  -0.9100  -0.7037  -0.7036  -0.3974  -0.3529
    -0.3519  -0.3088  -0.2763  -0.1128  -0.1127  -0.1033   0.0622   0.0628
     0.0818   0.0819   0.0981   0.1479   0.1601   0.1602   0.1773   0.2556
     0.2760   0.2794   0.2828   0.2829   0.2964   0.3570   0.3599   0.4210
     0.4213   0.4331   0.4440   0.4714   0.4714   0.4743   0.4930   0.4937
     0.5615   0.5617   0.5865   0.5885   0.6187   0.6188   0.6435   0.6529
     0.6530   0.7217   0.7217   0.7481   0.7706   0.7809   0.7811   0.8566
     0.8572   0.9078   0.9272   0.9274   0.9569   0.9570   1.0140   1.0232
     1.0234   1.0387   1.0387   1.0535   1.0915   1.1191   1.1191   1.1613
     1.1615   1.1888   1.1943   1.1947   1.1959   1.2121   1.2122   1.2720
     1.2722   1.2750   1.2750   1.2779   1.2907   1.3073   1.3084   1.3217
     1.3221   1.3496   1.3505   1.3733   1.3754   1.3760   1.3950   1.4190
     1.4599   1.4681   1.4683   1.4687   1.4694   1.4985   1.5174   1.5215
     1.5221   1.5590   1.5590   1.5601   1.5629   1.5690   1.5920   1.6134
     1.6134   1.6306   1.6307   1.6573   1.6582   1.6673   1.6674   1.6805
     1.6811   1.6950   1.6952   1.7127   1.7130   1.7275   1.7364   1.7601
     1.7735   1.7755   1.7784   1.7963   1.7988   1.7992   1.8059   1.8144
     1.8149   1.8238   1.8239   1.8380   1.8428   1.8436   1.8437   1.8498
     1.8659   1.8711   1.8944   1.9114   1.9127   1.9207   1.9234   1.9241
     1.9307   1.9317   1.9319   1.9348   1.9400   1.9456   1.9468   1.9478
     2.0070   2.0079   2.0688   2.0694   2.0783   2.0819   2.0821   2.0869
     2.1100   2.1102   2.1270   2.1295   2.1339   2.1532   2.1674   2.1683
     2.1967   2.1971   2.2127   2.2395   2.2407   2.2459   2.2465   2.2502
     2.2516   2.2524   2.2586   2.2610   2.2685   2.2688   2.2969   2.3197
     2.3341   2.3366   2.3380   2.3419   2.3516   2.3548   2.3565   2.3800
     2.3862   2.3944   2.4044   2.4304   2.4331   2.4474   2.4542   2.4562
     2.4651   2.4678   2.4987   2.5074   2.5127   2.5132   2.5396   2.5400
     2.5616   2.5681   2.5687   2.5869   2.5878   2.6106   2.6108   2.6117
     2.6153   2.6179   2.6312   2.6315   2.6360   2.6420   2.6447   2.6620
     2.6998   2.7069   2.7071   2.7094   2.7575   2.7578   2.7676   2.7690
     2.8000   2.8129   2.8133   2.8189   2.8192   2.8342   2.8369   2.8635
     2.8640   2.8642   2.8738   2.8740   2.8856   2.8873   2.8884   2.8887
     2.8903   2.8980   2.8982   2.8988   2.9013   2.9160   2.9165   2.9316
     2.9322   2.9366   2.9426   2.9426   2.9541   2.9701   2.9748   2.9808
     2.9811   2.9983   3.0300   3.0303   3.0405   3.0620   3.0623   3.2158
     3.2197   3.3297   3.3298   3.4320   3.4323   3.5335   3.7570   3.7588
     4.1354   4.1453   4.2407   4.2409   4.2538   4.5166   4.6274   4.6320
     4.6489   4.6490   4.7706   5.0950   5.1226   5.1234   5.5663   5.6072
     5.6252   5.6666   5.8591   5.8792   5.8809   6.0113   6.0166   6.1023
     6.1739   6.5470   6.6258   6.6275   6.8016   6.8588   6.9483   7.0035
     7.0042   7.2995   7.3998   7.4220   7.5591   7.7675   7.8280   7.9256
     8.4221   8.4248   8.4638   8.5284   8.7115   9.0482   9.0868   9.1210
     9.1954   9.2790   9.3276   9.4329   9.4411   9.6019   9.6382   9.6511
     9.7719   9.8189  10.0086  10.1139  10.1352  10.3176  10.3763  10.4661
    10.4917  10.5625  10.6396  10.7614  10.7951  11.0241  11.1254  11.1423
    11.2451  11.2861  11.3970  11.4306  11.4358  11.5831  11.6199  11.6609
    11.6762  11.7571  11.8011  11.8353  11.9681  12.0687  12.0968  12.1799
    12.2598  12.3266  12.3498  12.3814  12.4447  12.4588  12.5251  12.5819
    12.6775  12.7006  12.7866  12.9012  12.9380  12.9486  13.1367  13.2269
    13.2576  13.2836  13.3562  13.3797  13.4521  13.4754  13.5293  13.6094
    13.6440  13.6570

     the Fermi energy is     4.5589 ev

!    total energy              =  -21903.76815767 Ry
     Harris-Foulkes estimate   =  -21903.76815772 Ry
     estimated scf accuracy    <          3.2E-09 Ry

     The total energy is the sum of the following terms:

     one-electron contribution = -206078.52566392 Ry
     hartree contribution      =  103240.17239100 Ry
     xc contribution           =   -2143.16420999 Ry
     ewald contribution        =   83077.80188208 Ry
     smearing contrib. (-TS)   =      -0.05255684 Ry

     convergence has been achieved in  37 iterations
 
     init_run     :    129.77s CPU    134.27s WALL (       1 calls)
     electrons    :  27545.01s CPU  28032.38s WALL (       1 calls)

     Called by init_run:
     wfcinit      :    116.65s CPU    119.82s WALL (       1 calls)
     potinit      :      8.42s CPU      8.83s WALL (       1 calls)
     hinit0       :      1.73s CPU      1.76s WALL (       1 calls)

     Called by electrons:
     c_bands      :  25183.60s CPU  25580.09s WALL (      37 calls)
     sum_band     :   1990.16s CPU   2044.47s WALL (      37 calls)
     v_of_rho     :    302.50s CPU    315.65s WALL (      38 calls)
     newd         :     61.67s CPU     85.87s WALL (      38 calls)
     mix_rho      :      9.86s CPU     10.07s WALL (      37 calls)

     Called by c_bands:
     init_us_2    :     42.81s CPU     44.15s WALL (     750 calls)
     cegterg      :  25035.94s CPU  25424.69s WALL (     370 calls)

     Called by sum_band:
     sum_band:bec :      3.82s CPU      3.84s WALL (     370 calls)
     addusdens    :     62.85s CPU     88.69s WALL (      37 calls)

     Called by *egterg:
     h_psi        :   8846.80s CPU   8999.55s WALL (    2072 calls)
     s_psi        :    646.81s CPU    648.07s WALL (    2072 calls)
     g_psi        :     13.26s CPU     13.32s WALL (    1692 calls)
     cdiaghg      :  12055.95s CPU  12157.67s WALL (    2062 calls)

     Called by h_psi:
     h_psi:pot    :   8831.64s CPU   8960.31s WALL (    2072 calls)
     h_psi:calbec :    737.50s CPU    743.94s WALL (    2072 calls)
     vloc_psi     :   7447.15s CPU   7567.48s WALL (    2072 calls)
     add_vuspsi   :    646.95s CPU    648.87s WALL (    2072 calls)

     General routines
     calbec       :   1002.88s CPU   1010.44s WALL (    2442 calls)
     fft          :    265.15s CPU    268.25s WALL (    2393 calls)
     ffts         :      6.66s CPU      6.70s WALL (      75 calls)
     fftw         :   8376.58s CPU   8515.16s WALL ( 1480290 calls)
     interpolate  :      4.75s CPU      4.81s WALL (      38 calls)
 
     Parallel routines
     fft_scatt_xy :    449.78s CPU    453.76s WALL ( 1482758 calls)
     fft_scatt_yz :   6818.34s CPU   6950.51s WALL ( 1482758 calls)
 
     PWSCF        :     7h41m CPU       41h 7m WALL

      49h
 
   This run was terminated on:  17:12:16  15Nov2019            

=------------------------------------------------------------------------------=
   JOB DONE.
=------------------------------------------------------------------------------=
