
     Program PWSCF v.6.3MaX starts on 25Nov2019 at  1:27:30 

     This program is part of the open-source Quantum ESPRESSO suite
     for quantum simulation of materials; please cite
         "P. Giannozzi et al., J. Phys.:Condens. Matter 21 395502 (2009);
         "P. Giannozzi et al., J. Phys.:Condens. Matter 29 465901 (2017);
          URL http://www.quantum-espresso.org", 
     in publications or presentations arising from this work. More details at
     http://www.quantum-espresso.org/quote

     Parallel version (MPI), running on    16 processors

     MPI processes distributed on     2 nodes
     R & G space division:  proc/nbgrp/npool/nimage =      16
     Waiting for input...
     Reading input from standard input

     Current dimensions of program PWSCF are:
     Max number of different atomic species (ntypx) = 10
     Max number of k-points (npk) =  40000
     Max angular momentum in pseudopotentials (lmaxx) =  3
     Message from routine iosys:
     minimal I/O required, wf_collect reset to FALSE

     IMPORTANT: XC functional enforced from input :
     Exchange-correlation      = VDW-DF ( 1  4  4  0 1 0)
     Any further DFT definition will be discarded
     Please, verify this is what you really want


     Subspace diagonalization in iterative solution of the eigenvalue problem:
     one sub-group per band group will be used
     scalapack distributed-memory algorithm (size of sub-group:  2*  2 procs)

 
     Parallelization info
     --------------------
     sticks:   dense  smooth     PW     G-vecs:    dense   smooth      PW
     Min         565     189     51               159513    30701    4383
     Max         566     190     52               159526    30710    4400
     Sum        9055    3037    823              2552337   491295   70261
 


     bravais-lattice index     =            0
     lattice parameter (alat)  =      14.8058  a.u.
     unit-cell volume          =   10282.4791 (a.u.)^3
     number of atoms/cell      =           66
     number of atomic types    =            3
     number of electrons       =      1056.00
     number of Kohn-Sham states=          634
     kinetic-energy cutoff     =      50.0000  Ry
     charge density cutoff     =     600.0000  Ry
     convergence threshold     =      1.0E-08
     mixing beta               =       0.3000
     number of iterations used =            8  plain     mixing
     Exchange-correlation      = VDW-DF ( 1  4  4  0 1 0)

     celldm(1)=  14.805786  celldm(2)=   0.000000  celldm(3)=   0.000000
     celldm(4)=   0.000000  celldm(5)=   0.000000  celldm(6)=   0.000000

     crystal axes: (cart. coord. in units of alat)
               a(1) = (   1.000000   0.000000   0.000000 )  
               a(2) = (   0.500000   0.866025   0.000000 )  
               a(3) = (   0.000000   0.000000   3.658245 )  

     reciprocal axes: (cart. coord. in units 2 pi/alat)
               b(1) = (  1.000000 -0.577350  0.000000 )  
               b(2) = (  0.000000  1.154701  0.000000 )  
               b(3) = (  0.000000  0.000000  0.273355 )  


     PseudoPot. # 1 for Cu read from file:
     /deac/thonhauserGrp/chakrad/calculations/atomandmolecule-qe6.2.1-i2012-C6modif/all_pbe_UPF_v1.5/cu_pbe_v1.2.uspp.F.UPF
     MD5 check sum: 6e991ff952a84172a2a52a1c1e996048
     Pseudo is Ultrasoft + core correction, Zval = 19.0
     Generated by new atomic code, or converted to UPF format
     Using radial grid of  867 points,  6 beta functions with: 
                l(1) =   0
                l(2) =   0
                l(3) =   1
                l(4) =   1
                l(5) =   2
                l(6) =   2
     Q(r) pseudized with  8 coefficients,  rinner =    1.150   1.150   1.150
                                                       1.150   1.150

     PseudoPot. # 2 for C  read from file:
     /deac/thonhauserGrp/chakrad/calculations/atomandmolecule-qe6.2.1-i2012-C6modif/all_pbe_UPF_v1.5/c_pbe_v1.2.uspp.F.UPF
     MD5 check sum: d1aef80898a10debaa0f26306b886e00
     Pseudo is Ultrasoft + core correction, Zval =  4.0
     Generated by new atomic code, or converted to UPF format
     Using radial grid of  721 points,  4 beta functions with: 
                l(1) =   0
                l(2) =   0
                l(3) =   1
                l(4) =   1
     Q(r) pseudized with  8 coefficients,  rinner =    1.100   1.100   1.100


     PseudoPot. # 3 for H  read from file:
     /deac/thonhauserGrp/chakrad/calculations/atomandmolecule-qe6.2.1-i2012-C6modif/all_pbe_UPF_v1.5/h_pbe_v1.4.uspp.F.UPF
     MD5 check sum: 761ae9a214b05c3daf00ab9f6b793d6f
     Pseudo is Ultrasoft, Zval =  1.0
     Generated by new atomic code, or converted to UPF format
     Using radial grid of  615 points,  2 beta functions with: 
                l(1) =   0
                l(2) =   0
     Q(r) pseudized with  8 coefficients,  rinner =    0.700

     vdW kernel table read from file vdW_kernel_table
     MD5 check sum: cc9485f6209b1096fbef62427c856dab

     atomic species   valence    mass     pseudopotential
        Cu            19.00     1.00000     Cu( 1.00)
        C              4.00     1.00000     C ( 1.00)
        H              1.00     1.00000     H ( 1.00)

     No symmetry found



   Cartesian axes

     site n.     atom                  positions (alat units)
         1           Cu  tau(   1) = (   0.1666667   0.0962250   0.2552686  )
         2           Cu  tau(   2) = (   0.5000000   0.0962250   0.2552686  )
         3           Cu  tau(   3) = (   0.8333333   0.0962250   0.2552686  )
         4           Cu  tau(   4) = (   0.3333333   0.3849002   0.2552686  )
         5           Cu  tau(   5) = (   0.6666667   0.3849002   0.2552686  )
         6           Cu  tau(   6) = (   1.0000000   0.3849002   0.2552686  )
         7           Cu  tau(   7) = (   0.5000000   0.6735753   0.2552686  )
         8           Cu  tau(   8) = (   0.8333333   0.6735753   0.2552686  )
         9           Cu  tau(   9) = (   1.1666667   0.6735753   0.2552686  )
        10           Cu  tau(  10) = (   0.0000000   0.1924501   0.5274341  )
        11           Cu  tau(  11) = (   0.3333333   0.1924501   0.5274341  )
        12           Cu  tau(  12) = (   0.6666667   0.1924501   0.5274341  )
        13           Cu  tau(  13) = (   0.1666667   0.4811252   0.5274341  )
        14           Cu  tau(  14) = (   0.5000000   0.4811252   0.5274341  )
        15           Cu  tau(  15) = (   0.8333333   0.4811252   0.5274341  )
        16           Cu  tau(  16) = (   0.3333333   0.7698004   0.5274341  )
        17           Cu  tau(  17) = (   0.6666667   0.7698004   0.5274341  )
        18           Cu  tau(  18) = (   1.0000000   0.7698004   0.5274341  )
        19           Cu  tau(  19) = (   0.0000000   0.0000000   0.7995997  )
        20           Cu  tau(  20) = (   0.3333333   0.0000000   0.7995997  )
        21           Cu  tau(  21) = (   0.6666667   0.0000000   0.7995997  )
        22           Cu  tau(  22) = (   0.1666667   0.2886751   0.7995997  )
        23           Cu  tau(  23) = (   0.5000000   0.2886751   0.7995997  )
        24           Cu  tau(  24) = (   0.8333333   0.2886751   0.7995997  )
        25           Cu  tau(  25) = (   0.3333333   0.5773503   0.7995997  )
        26           Cu  tau(  26) = (   0.6666667   0.5773503   0.7995997  )
        27           Cu  tau(  27) = (   1.0000000   0.5773503   0.7995997  )
        28           Cu  tau(  28) = (   0.1666659   0.0962246   1.0691130  )
        29           Cu  tau(  29) = (   0.5000000   0.0962241   1.0691104  )
        30           Cu  tau(  30) = (   0.8333341   0.0962246   1.0691130  )
        31           Cu  tau(  31) = (   0.3333325   0.3849006   1.0691104  )
        32           Cu  tau(  32) = (   0.6666675   0.3849006   1.0691104  )
        33           Cu  tau(  33) = (   1.0000000   0.3849003   1.0691143  )
        34           Cu  tau(  34) = (   0.5000000   0.6735762   1.0691130  )
        35           Cu  tau(  35) = (   0.8333334   0.6735753   1.0691143  )
        36           Cu  tau(  36) = (   1.1666666   0.6735753   1.0691143  )
        37           Cu  tau(  37) = (   0.0000000   0.1924486   1.3387540  )
        38           Cu  tau(  38) = (   0.3333330   0.1924499   1.3387465  )
        39           Cu  tau(  39) = (   0.6666670   0.1924499   1.3387465  )
        40           Cu  tau(  40) = (   0.1666676   0.4811247   1.3387504  )
        41           Cu  tau(  41) = (   0.5000000   0.4811256   1.3387465  )
        42           Cu  tau(  42) = (   0.8333324   0.4811247   1.3387504  )
        43           Cu  tau(  43) = (   0.3333346   0.7698011   1.3387540  )
        44           Cu  tau(  44) = (   0.6666654   0.7698011   1.3387540  )
        45           Cu  tau(  45) = (   1.0000000   0.7698014   1.3387504  )
        46           Cu  tau(  46) = (   0.0000000   0.0000000   1.6083750  )
        47           Cu  tau(  47) = (   0.3333333   0.0000005   1.6083624  )
        48           Cu  tau(  48) = (   0.6666667   0.0000005   1.6083624  )
        49           Cu  tau(  49) = (   0.1666671   0.2886748   1.6083624  )
        50           Cu  tau(  50) = (   0.5000000   0.2886751   1.6083553  )
        51           Cu  tau(  51) = (   0.8333329   0.2886748   1.6083624  )
        52           Cu  tau(  52) = (   0.3333338   0.5773500   1.6083624  )
        53           Cu  tau(  53) = (   0.6666662   0.5773500   1.6083624  )
        54           Cu  tau(  54) = (   1.0000000   0.5773503   1.6083570  )
        55           C   tau(  55) = (   0.6567407   0.3959883   1.9593122  )
        56           C   tau(  56) = (   0.5046394   0.3028152   1.9593122  )
        57           C   tau(  57) = (   0.3478975   0.3879497   1.9593122  )
        58           C   tau(  58) = (   0.3432593   0.5662630   1.9593122  )
        59           C   tau(  59) = (   0.4953606   0.6594361   1.9593122  )
        60           C   tau(  60) = (   0.6521025   0.5743016   1.9593122  )
        61           H   tau(  61) = (   0.7789959   0.3295665   1.9593905  )
        62           H   tau(  62) = (   0.5082587   0.1637263   1.9593905  )
        63           H   tau(  63) = (   0.2292624   0.3152577   1.9593905  )
        64           H   tau(  64) = (   0.2210041   0.6326847   1.9593905  )
        65           H   tau(  65) = (   0.4917413   0.7985249   1.9593905  )
        66           H   tau(  66) = (   0.7707376   0.6469936   1.9593905  )

     number of k points=    10  gaussian smearing, width (Ry)=  0.0200
                       cart. coord. in units 2pi/alat
        k(    1) = (   0.0000000   0.0000000   0.0000000), wk =   0.1250000
        k(    2) = (   0.0000000   0.2886751   0.0000000), wk =   0.2500000
        k(    3) = (   0.0000000  -0.5773503   0.0000000), wk =   0.1250000
        k(    4) = (   0.2500000  -0.7216878   0.0000000), wk =   0.2500000
        k(    5) = (  -0.2500000   0.1443376   0.0000000), wk =   0.2500000
        k(    6) = (   0.2500000   0.1443376   0.0000000), wk =   0.2500000
        k(    7) = (   0.5000000  -0.2886751   0.0000000), wk =   0.1250000
        k(    8) = (  -0.5000000  -0.2886751   0.0000000), wk =   0.1250000
        k(    9) = (  -0.2500000  -0.7216878   0.0000000), wk =   0.2500000
        k(   10) = (  -0.5000000  -0.5773503   0.0000000), wk =   0.2500000

     Dense  grid:  2552337 G-vectors     FFT dimensions: ( 120, 120, 432)

     Smooth grid:   491295 G-vectors     FFT dimensions: (  72,  72, 243)

     Estimated max dynamical RAM per process >       1.14 GB

     Estimated total dynamical RAM >      18.26 GB

     Initial potential from superposition of free atoms
     Check: negative starting charge=   -0.000831

     starting charge 1001.99960, renormalised to 1056.00000

     negative rho (up, down):  8.761E-04 0.000E+00


     %%%%%%%%%%%%%%%%%%%%%%%%%%%%%%%%%%%%%%%%%%%%%%%%%%%%%%%%%%%%%%%%%%%%%%%%
     %                                                                      %
     % You are using vdW-DF, which was implemented by the Thonhauser group. %
     % Please cite the following two papers that made this development      %
     % possible and the two reviews that describe the various versions:     %
     %                                                                      %
     %   T. Thonhauser et al., PRL 115, 136402 (2015).                      %
     %   T. Thonhauser et al., PRB 76, 125112 (2007).                       %
     %   K. Berland et al., Rep. Prog. Phys. 78, 066501 (2015).             %
     %   D.C. Langreth et al., J. Phys.: Condens. Matter 21, 084203 (2009). %
     %                                                                      %
     %                                                                      %
     % If you are calculating the stress with vdW-DF, please also cite:     %
     %                                                                      %
     %   R. Sabatini et al., J. Phys.: Condens. Matter 24, 424209 (2012).   %
     %                                                                      %
     %%%%%%%%%%%%%%%%%%%%%%%%%%%%%%%%%%%%%%%%%%%%%%%%%%%%%%%%%%%%%%%%%%%%%%%%


     Starting wfcs are  732 randomized atomic wfcs

     total cpu time spent up to now is       73.5 secs

     Self-consistent Calculation

     iteration #  1     ecut=    50.00 Ry     beta= 0.30
     Davidson diagonalization with overlap
     ethr =  1.00E-02,  avg # of iterations =  6.0

     negative rho (up, down):  5.131E-04 0.000E+00

     total cpu time spent up to now is     1361.8 secs

     total energy              =  -18818.11578952 Ry
     Harris-Foulkes estimate   =  -22012.93321678 Ry
     estimated scf accuracy    <    6313.78747473 Ry

     iteration #  2     ecut=    50.00 Ry     beta= 0.30
     Davidson diagonalization with overlap
     ethr =  1.00E-02,  avg # of iterations = 18.5

     negative rho (up, down):  5.570E-04 0.000E+00

     total cpu time spent up to now is     3969.0 secs

     total energy              =  -19196.86068777 Ry
     Harris-Foulkes estimate   =  -39045.78338167 Ry
     estimated scf accuracy    <  276522.47975375 Ry

     iteration #  3     ecut=    50.00 Ry     beta= 0.30
     Davidson diagonalization with overlap
     ethr =  1.00E-02,  avg # of iterations =  7.2

     negative rho (up, down):  6.319E-04 0.000E+00

     total cpu time spent up to now is     5460.2 secs

     total energy              =  -21482.50639991 Ry
     Harris-Foulkes estimate   =  -23543.29628048 Ry
     estimated scf accuracy    <   58622.19770153 Ry

     iteration #  4     ecut=    50.00 Ry     beta= 0.30
     Davidson diagonalization with overlap
     ethr =  1.00E-02,  avg # of iterations =  7.7

     negative rho (up, down):  7.695E-04 0.000E+00

     total cpu time spent up to now is     7107.7 secs

     total energy              =  -21651.36459649 Ry
     Harris-Foulkes estimate   =  -22144.78052222 Ry
     estimated scf accuracy    <   15322.39452042 Ry

     iteration #  5     ecut=    50.00 Ry     beta= 0.30
     Davidson diagonalization with overlap
     ethr =  1.00E-02,  avg # of iterations =  6.0

     negative rho (up, down):  8.430E-04 0.000E+00

     total cpu time spent up to now is     8293.2 secs

     total energy              =  -21798.77812547 Ry
     Harris-Foulkes estimate   =  -22227.65627454 Ry
     estimated scf accuracy    <    8710.15864890 Ry

     iteration #  6     ecut=    50.00 Ry     beta= 0.30
     Davidson diagonalization with overlap
     ethr =  1.00E-02,  avg # of iterations =  7.1

     negative rho (up, down):  9.963E-04 0.000E+00

     total cpu time spent up to now is     9406.2 secs

     total energy              =  -21901.05007748 Ry
     Harris-Foulkes estimate   =  -21968.48605797 Ry
     estimated scf accuracy    <    2201.25590145 Ry

     iteration #  7     ecut=    50.00 Ry     beta= 0.30
     Davidson diagonalization with overlap
     ethr =  1.00E-02,  avg # of iterations =  2.4

     negative rho (up, down):  1.167E-03 0.000E+00

     total cpu time spent up to now is     9639.8 secs

     total energy              =  -21913.93776046 Ry
     Harris-Foulkes estimate   =  -21938.44797657 Ry
     estimated scf accuracy    <     242.85346269 Ry

     iteration #  8     ecut=    50.00 Ry     beta= 0.30
     Davidson diagonalization with overlap
     ethr =  1.00E-02,  avg # of iterations =  2.8

     negative rho (up, down):  1.294E-03 0.000E+00

     total cpu time spent up to now is     9874.5 secs

     total energy              =  -21917.26142960 Ry
     Harris-Foulkes estimate   =  -21920.81277802 Ry
     estimated scf accuracy    <     102.94725431 Ry

     iteration #  9     ecut=    50.00 Ry     beta= 0.30
     Davidson diagonalization with overlap
     ethr =  9.75E-03,  avg # of iterations =  1.0

     negative rho (up, down):  1.431E-03 0.000E+00

     total cpu time spent up to now is    10048.1 secs

     total energy              =  -21910.07608390 Ry
     Harris-Foulkes estimate   =  -21918.05461052 Ry
     estimated scf accuracy    <     102.45536541 Ry

     iteration # 10     ecut=    50.00 Ry     beta= 0.30
     Davidson diagonalization with overlap
     ethr =  9.70E-03,  avg # of iterations =  1.0

     negative rho (up, down):  1.829E-03 0.000E+00

     total cpu time spent up to now is    10219.5 secs

     total energy              =  -21893.55050312 Ry
     Harris-Foulkes estimate   =  -21911.96453882 Ry
     estimated scf accuracy    <     102.94345383 Ry

     iteration # 11     ecut=    50.00 Ry     beta= 0.30
     Davidson diagonalization with overlap
     ethr =  9.70E-03,  avg # of iterations =  3.7

     negative rho (up, down):  1.365E-04 0.000E+00

     total cpu time spent up to now is    10574.8 secs

     total energy              =  -21899.60656099 Ry
     Harris-Foulkes estimate   =  -21929.10762358 Ry
     estimated scf accuracy    <     838.75957527 Ry

     iteration # 12     ecut=    50.00 Ry     beta= 0.30
     Davidson diagonalization with overlap
     ethr =  9.70E-03,  avg # of iterations =  1.5

     negative rho (up, down):  1.544E-04 0.000E+00

     total cpu time spent up to now is    10762.1 secs

     total energy              =  -21899.09065826 Ry
     Harris-Foulkes estimate   =  -21909.97685946 Ry
     estimated scf accuracy    <     132.90249692 Ry

     iteration # 13     ecut=    50.00 Ry     beta= 0.30
     Davidson diagonalization with overlap
     ethr =  9.70E-03,  avg # of iterations =  2.3

     negative rho (up, down):  1.413E-04 0.000E+00

     total cpu time spent up to now is    10975.7 secs

     total energy              =  -21902.03075046 Ry
     Harris-Foulkes estimate   =  -21904.24819612 Ry
     estimated scf accuracy    <      12.58990268 Ry

     iteration # 14     ecut=    50.00 Ry     beta= 0.30
     Davidson diagonalization with overlap
     ethr =  1.19E-03,  avg # of iterations =  5.1

     negative rho (up, down):  1.558E-04 0.000E+00

     total cpu time spent up to now is    11357.8 secs

     total energy              =  -21903.85659960 Ry
     Harris-Foulkes estimate   =  -21904.65517123 Ry
     estimated scf accuracy    <      11.83755737 Ry

     iteration # 15     ecut=    50.00 Ry     beta= 0.30
     Davidson diagonalization with overlap
     ethr =  1.12E-03,  avg # of iterations =  1.0

     negative rho (up, down):  1.782E-04 0.000E+00

     total cpu time spent up to now is    11536.2 secs

     total energy              =  -21903.90371991 Ry
     Harris-Foulkes estimate   =  -21904.16536553 Ry
     estimated scf accuracy    <       4.38873043 Ry

     iteration # 16     ecut=    50.00 Ry     beta= 0.30
     Davidson diagonalization with overlap
     ethr =  4.16E-04,  avg # of iterations =  5.2

     negative rho (up, down):  2.178E-04 0.000E+00

     total cpu time spent up to now is    11839.3 secs

     total energy              =  -21903.81282619 Ry
     Harris-Foulkes estimate   =  -21904.03333396 Ry
     estimated scf accuracy    <       3.10771696 Ry

     iteration # 17     ecut=    50.00 Ry     beta= 0.30
     Davidson diagonalization with overlap
     ethr =  2.94E-04,  avg # of iterations =  4.2

     negative rho (up, down):  3.558E-04 0.000E+00

     total cpu time spent up to now is    12116.3 secs

     total energy              =  -21903.71616046 Ry
     Harris-Foulkes estimate   =  -21903.86379905 Ry
     estimated scf accuracy    <       1.12320918 Ry

     iteration # 18     ecut=    50.00 Ry     beta= 0.30
     Davidson diagonalization with overlap
     ethr =  1.06E-04,  avg # of iterations =  7.7

     negative rho (up, down):  4.043E-04 0.000E+00

     total cpu time spent up to now is    12538.2 secs

     total energy              =  -21903.75697624 Ry
     Harris-Foulkes estimate   =  -21903.78224226 Ry
     estimated scf accuracy    <       0.37867817 Ry

     iteration # 19     ecut=    50.00 Ry     beta= 0.30
     Davidson diagonalization with overlap
     ethr =  3.59E-05,  avg # of iterations =  5.4

     negative rho (up, down):  5.010E-04 0.000E+00

     total cpu time spent up to now is    12849.4 secs

     total energy              =  -21903.75202034 Ry
     Harris-Foulkes estimate   =  -21903.76520827 Ry
     estimated scf accuracy    <       0.10548482 Ry

     iteration # 20     ecut=    50.00 Ry     beta= 0.30
     Davidson diagonalization with overlap
     ethr =  9.99E-06,  avg # of iterations =  9.6

     negative rho (up, down):  8.570E-04 0.000E+00

     total cpu time spent up to now is    13336.6 secs

     total energy              =  -21903.73005461 Ry
     Harris-Foulkes estimate   =  -21903.75485561 Ry
     estimated scf accuracy    <       0.08834707 Ry

     iteration # 21     ecut=    50.00 Ry     beta= 0.30
     Davidson diagonalization with overlap
     ethr =  8.37E-06,  avg # of iterations =  7.2

     negative rho (up, down):  9.133E-04 0.000E+00

     total cpu time spent up to now is    13791.5 secs

     total energy              =  -21903.73447734 Ry
     Harris-Foulkes estimate   =  -21903.74368484 Ry
     estimated scf accuracy    <       0.09854077 Ry

     iteration # 22     ecut=    50.00 Ry     beta= 0.30
     Davidson diagonalization with overlap
     ethr =  8.37E-06,  avg # of iterations =  5.1

     negative rho (up, down):  1.002E-03 0.000E+00

     total cpu time spent up to now is    14087.9 secs

     total energy              =  -21903.73757521 Ry
     Harris-Foulkes estimate   =  -21903.74011466 Ry
     estimated scf accuracy    <       0.01559948 Ry

     iteration # 23     ecut=    50.00 Ry     beta= 0.30
     Davidson diagonalization with overlap
     ethr =  1.48E-06,  avg # of iterations =  9.5

     negative rho (up, down):  1.087E-03 0.000E+00

     total cpu time spent up to now is    14597.8 secs

     total energy              =  -21903.73823699 Ry
     Harris-Foulkes estimate   =  -21903.73970762 Ry
     estimated scf accuracy    <       0.00948447 Ry

     iteration # 24     ecut=    50.00 Ry     beta= 0.30
     Davidson diagonalization with overlap
     ethr =  8.98E-07,  avg # of iterations =  7.7

     negative rho (up, down):  1.350E-03 0.000E+00

     total cpu time spent up to now is    15019.7 secs

     total energy              =  -21903.73873050 Ry
     Harris-Foulkes estimate   =  -21903.73911637 Ry
     estimated scf accuracy    <       0.00261850 Ry

     iteration # 25     ecut=    50.00 Ry     beta= 0.30
     Davidson diagonalization with overlap
     ethr =  2.48E-07,  avg # of iterations =  7.6

     negative rho (up, down):  1.725E-03 0.000E+00

     total cpu time spent up to now is    15474.2 secs

     total energy              =  -21903.73903208 Ry
     Harris-Foulkes estimate   =  -21903.73900804 Ry
     estimated scf accuracy    <       0.00102111 Ry

     iteration # 26     ecut=    50.00 Ry     beta= 0.30
     Davidson diagonalization with overlap
     c_bands:  1 eigenvalues not converged
     c_bands:  1 eigenvalues not converged
     ethr =  9.67E-08,  avg # of iterations = 10.4

     negative rho (up, down):  1.978E-03 0.000E+00

     total cpu time spent up to now is    16018.7 secs

     total energy              =  -21903.73911250 Ry
     Harris-Foulkes estimate   =  -21903.73909945 Ry
     estimated scf accuracy    <       0.00017894 Ry

     iteration # 27     ecut=    50.00 Ry     beta= 0.30
     Davidson diagonalization with overlap
     ethr =  1.69E-08,  avg # of iterations =  2.3

     negative rho (up, down):  2.177E-03 0.000E+00

     total cpu time spent up to now is    16232.1 secs

     total energy              =  -21903.73913742 Ry
     Harris-Foulkes estimate   =  -21903.73913135 Ry
     estimated scf accuracy    <       0.00004324 Ry

     iteration # 28     ecut=    50.00 Ry     beta= 0.30
     Davidson diagonalization with overlap
     ethr =  4.09E-09,  avg # of iterations =  2.9

     negative rho (up, down):  2.395E-03 0.000E+00

     total cpu time spent up to now is    16471.1 secs

     total energy              =  -21903.73914718 Ry
     Harris-Foulkes estimate   =  -21903.73914261 Ry
     estimated scf accuracy    <       0.00001042 Ry

     iteration # 29     ecut=    50.00 Ry     beta= 0.30
     Davidson diagonalization with overlap
     ethr =  9.87E-10,  avg # of iterations =  3.6

     negative rho (up, down):  2.513E-03 0.000E+00

     total cpu time spent up to now is    16738.0 secs

     total energy              =  -21903.73914810 Ry
     Harris-Foulkes estimate   =  -21903.73914915 Ry
     estimated scf accuracy    <       0.00002255 Ry

     iteration # 30     ecut=    50.00 Ry     beta= 0.30
     Davidson diagonalization with overlap
     ethr =  9.87E-10,  avg # of iterations =  2.3

     negative rho (up, down):  2.632E-03 0.000E+00

     total cpu time spent up to now is    16950.4 secs

     total energy              =  -21903.73914871 Ry
     Harris-Foulkes estimate   =  -21903.73915012 Ry
     estimated scf accuracy    <       0.00001750 Ry

     iteration # 31     ecut=    50.00 Ry     beta= 0.30
     Davidson diagonalization with overlap
     ethr =  9.87E-10,  avg # of iterations =  2.0

     negative rho (up, down):  2.666E-03 0.000E+00

     total cpu time spent up to now is    17161.3 secs

     total energy              =  -21903.73914896 Ry
     Harris-Foulkes estimate   =  -21903.73914969 Ry
     estimated scf accuracy    <       0.00000499 Ry

     iteration # 32     ecut=    50.00 Ry     beta= 0.30
     Davidson diagonalization with overlap
     ethr =  4.73E-10,  avg # of iterations =  2.3

     negative rho (up, down):  2.681E-03 0.000E+00

     total cpu time spent up to now is    17372.9 secs

     total energy              =  -21903.73914862 Ry
     Harris-Foulkes estimate   =  -21903.73915002 Ry
     estimated scf accuracy    <       0.00002425 Ry

     iteration # 33     ecut=    50.00 Ry     beta= 0.30
     Davidson diagonalization with overlap
     ethr =  4.73E-10,  avg # of iterations =  1.0

     negative rho (up, down):  2.697E-03 0.000E+00

     total cpu time spent up to now is    17544.8 secs

     total energy              =  -21903.73914913 Ry
     Harris-Foulkes estimate   =  -21903.73914928 Ry
     estimated scf accuracy    <       0.00000015 Ry

     iteration # 34     ecut=    50.00 Ry     beta= 0.30
     Davidson diagonalization with overlap
     ethr =  1.44E-11,  avg # of iterations =  2.0

     negative rho (up, down):  2.700E-03 0.000E+00

     total cpu time spent up to now is    17762.3 secs

     total energy              =  -21903.73914911 Ry
     Harris-Foulkes estimate   =  -21903.73914916 Ry
     estimated scf accuracy    <       0.00000013 Ry

     iteration # 35     ecut=    50.00 Ry     beta= 0.30
     Davidson diagonalization with overlap
     ethr =  1.24E-11,  avg # of iterations =  2.0

     negative rho (up, down):  2.701E-03 0.000E+00

     total cpu time spent up to now is    17966.7 secs

     total energy              =  -21903.73914909 Ry
     Harris-Foulkes estimate   =  -21903.73914913 Ry
     estimated scf accuracy    <       0.00000017 Ry

     iteration # 36     ecut=    50.00 Ry     beta= 0.30
     Davidson diagonalization with overlap
     ethr =  1.24E-11,  avg # of iterations =  2.0

     negative rho (up, down):  2.706E-03 0.000E+00

     total cpu time spent up to now is    18166.6 secs

     End of self-consistent calculation

          k = 0.0000 0.0000 0.0000 ( 61453 PWs)   bands (ev):

  -107.6838-107.6714-107.6668-107.6668-107.6654-107.6642-107.6639-107.6639
  -107.6622-107.6616-107.6616-107.6610-107.6608-107.6608-107.6599-107.6598
  -107.6592-107.6579-107.6579-107.6575-107.6566-107.6546-107.6546-107.6519
  -107.6511-107.6492-107.6492-107.6480-107.6457-107.6457-107.6455-107.6455
  -107.6441-107.6434-107.6383-107.6341-107.5521-107.5495-107.5495-107.4880
  -107.4854-107.4854-107.4585-107.4560-107.4560-107.4107-107.4063-107.4063
  -107.4060-107.4048-107.4048-107.4046-107.4025-107.4025 -65.1286 -65.1202
   -65.1129 -65.1129 -65.1123 -65.1123 -65.1111 -65.1071 -65.1071 -65.1062
   -65.1046 -65.1046 -65.1036 -65.1028 -65.1028 -65.1016 -65.1006 -65.1006
   -65.1003 -65.0998 -65.0966 -65.0966 -65.0933 -65.0914 -65.0914 -65.0914
   -65.0899 -65.0899 -65.0892 -65.0880 -65.0880 -65.0873 -65.0873 -65.0863
   -65.0860 -65.0842 -65.0842 -65.0839 -65.0820 -65.0820 -65.0811 -65.0800
   -65.0795 -65.0795 -65.0782 -65.0782 -65.0768 -65.0750 -65.0750 -65.0737
   -65.0727 -65.0726 -65.0726 -65.0722 -65.0722 -65.0709 -65.0663 -65.0651
   -65.0651 -65.0646 -65.0646 -65.0634 -65.0629 -65.0629 -65.0624 -65.0622
   -65.0622 -65.0602 -65.0601 -65.0601 -65.0589 -65.0589 -65.0589 -65.0572
   -65.0547 -65.0547 -65.0545 -65.0545 -65.0538 -65.0538 -65.0534 -65.0515
   -65.0515 -65.0511 -65.0503 -65.0503 -65.0485 -65.0482 -65.0480 -65.0480
   -65.0465 -65.0462 -65.0462 -65.0459 -65.0437 -65.0437 -65.0403 -65.0403
   -65.0400 -65.0380 -65.0377 -65.0377 -65.0353 -65.0353 -65.0336 -65.0336
   -65.0278 -65.0278 -64.9945 -64.9945 -64.9920 -64.9819 -64.9699 -64.9699
   -64.9489 -64.9464 -64.9464 -64.9370 -64.9345 -64.9345 -64.9169 -64.9088
   -64.9067 -64.9067 -64.8975 -64.8974 -64.8837 -64.8746 -64.8746 -64.8711
   -64.8689 -64.8688 -64.8659 -64.8654 -64.8654 -64.8649 -64.8641 -64.8641
   -64.8620 -64.8620 -64.8620 -64.8615 -64.8386 -64.8363 -64.8363 -64.8300
   -64.8300 -64.8298 -64.8295 -64.8294 -64.8282 -64.8172 -64.8172 -64.7823
   -64.7783 -64.7783 -64.7779 -64.7767 -64.7767 -64.7762 -64.7743 -64.7743
   -13.2611 -10.4904 -10.4901  -6.8684  -6.8678  -4.9377  -3.9396  -3.3329
    -3.3089  -2.9616  -2.4274  -2.2951  -2.2950  -1.5982  -1.0749  -0.9750
    -0.9750  -0.9727  -0.9727  -0.9721  -0.9558  -0.5812  -0.5812  -0.5759
    -0.5759  -0.5710  -0.5596  -0.3534  -0.3531  -0.3262  -0.0942  -0.0942
    -0.0761  -0.0740  -0.0692  -0.0692  -0.0477   0.3461   0.3461   0.3754
     0.3788   0.3788   0.3886   0.6852   0.6852   0.7243   0.7246   0.7246
     0.7327   0.8457   0.8457   0.8546   0.8570   0.8570   0.8600   0.8948
     0.8948   0.9038   0.9038   0.9045   0.9069   0.9380   0.9380   0.9519
     0.9519   0.9548   0.9551   1.0359   1.0359   1.0507   1.0522   1.0672
     1.0672   1.0696   1.0753   1.0753   1.0792   1.0953   1.0953   1.0979
     1.0981   1.1184   1.1184   1.1598   1.1598   1.1911   1.1911   1.2764
     1.2764   1.2833   1.2862   1.2862   1.2903   1.3353   1.3353   1.3575
     1.3575   1.5205   1.5205   1.5249   1.5258   1.5565   1.5565   1.6666
     1.6666   1.6751   1.6751   1.6813   1.6813   1.6827   1.6857   1.7079
     1.7079   1.7101   1.7104   1.7293   1.7432   1.7949   1.7949   1.7961
     1.7985   1.8048   1.8049   1.8083   1.8088   1.8413   1.8413   1.8592
     1.8763   1.8771   1.8771   1.8779   1.8779   1.8832   1.8954   1.8954
     1.9265   1.9265   1.9333   1.9358   1.9358   1.9366   1.9386   1.9386
     1.9575   1.9580   1.9580   1.9601   1.9612   1.9612   1.9669   1.9669
     1.9713   2.0160   2.0160   2.0176   2.0216   2.0731   2.0731   2.0737
     2.0804   2.0804   2.0832   2.1079   2.1079   2.1211   2.1211   2.1397
     2.1401   2.1538   2.1542   2.1542   2.1593   2.1601   2.1601   2.1612
     2.1612   2.3222   2.3222   2.3269   2.3340   2.3757   2.3757   2.4035
     2.4065   2.4065   2.4124   2.4124   2.4140   2.4372   2.4372   2.4504
     2.4589   2.4926   2.4926   2.4974   2.4974   2.5098   2.5098   2.5225
     2.5227   2.5858   2.5878   2.5878   2.5990   2.5990   2.6056   2.6113
     2.6113   2.6138   2.6138   2.6337   2.6337   2.6345   2.6347   2.6422
     2.6422   2.6430   2.6430   2.6448   2.6582   2.6582   2.7132   2.7132
     2.7822   2.7836   2.7836   2.7864   2.7868   2.7868   2.8355   2.8370
     2.8370   2.8384   2.8467   2.8467   2.8474   2.8488   2.8499   2.8499
     2.8533   2.8533   2.8908   2.8908   2.9050   2.9103   2.9103   2.9139
     2.9139   2.9158   2.9257   2.9257   2.9260   2.9280   2.9287   2.9287
     2.9354   2.9400   2.9400   2.9432   2.9432   2.9442   2.9460   2.9460
     2.9779   2.9851   2.9851   2.9951   2.9951   2.9967   2.9967   3.0008
     3.0205   3.0215   3.0414   3.0414   3.0417   3.0425   3.0425   3.0444
     3.0580   3.0580   3.0663   3.0663   3.0819   3.0819   3.0937   3.0983
     3.0986   3.0986   3.1007   3.1039   3.1039   3.1062   3.1252   3.1252
     3.1283   3.1383   3.1383   3.1471   3.1858   3.1864   3.1864   3.1903
     3.1903   3.1906   3.2283   3.2284   4.0174   4.0896   4.0896   4.1047
     4.2083   4.2257   4.2257   4.7360   5.4752   5.4752   5.5265   5.6333
     5.6773   5.6774   6.6747   6.6749   6.9702   7.2677   7.3766   7.4222
     7.4223   7.5297   7.5297   7.9855   7.9855   7.9870   7.9875   8.0050
     8.0050   8.1926   8.3749   8.3749   8.4020   8.4020   8.4375   8.7542
     8.7687   8.8192   8.8952   8.8952   8.9873   9.0222   9.0318   9.3080
     9.3080   9.3455   9.4955   9.6606   9.6606   9.6848   9.6848   9.9326
     9.9328   9.9334  10.0417  10.0489  10.5364  10.5626  10.7050  10.7050
    10.7563  10.7564  10.8414  10.8414  11.0086  11.0087  11.0872  11.0872
    11.0885  11.1438  11.2116  11.3510  11.3510  11.4716  11.4716  11.4786
    11.5646  11.6144  11.6144  11.7733  11.8282  11.8283  11.9058  11.9059
    11.9745  12.0209  12.0209  12.0575  12.0735  12.0735  12.1181  12.2359
    12.2359  12.2986  12.3409  12.4054  12.4054  12.6641  12.6641  12.8033
    12.8991  12.8992  12.9134  13.0644  13.0644  13.0918  13.0971  13.1584
    13.2421  13.2592

          k = 0.0000 0.2887 0.0000 ( 61417 PWs)   bands (ev):

  -107.6837-107.6710-107.6676-107.6669-107.6655-107.6640-107.6636-107.6635
  -107.6623-107.6617-107.6616-107.6609-107.6608-107.6607-107.6599-107.6598
  -107.6592-107.6583-107.6580-107.6575-107.6567-107.6546-107.6545-107.6517
  -107.6512-107.6492-107.6492-107.6480-107.6464-107.6462-107.6452-107.6449
  -107.6439-107.6436-107.6383-107.6341-107.5521-107.5495-107.5495-107.4880
  -107.4854-107.4854-107.4585-107.4560-107.4560-107.4103-107.4074-107.4065
  -107.4060-107.4047-107.4045-107.4039-107.4026-107.4026 -65.1278 -65.1204
   -65.1155 -65.1145 -65.1138 -65.1132 -65.1125 -65.1114 -65.1099 -65.1090
   -65.1076 -65.1072 -65.1064 -65.1056 -65.1034 -65.1016 -65.1004 -65.0989
   -65.0982 -65.0977 -65.0961 -65.0958 -65.0958 -65.0947 -65.0936 -65.0934
   -65.0927 -65.0911 -65.0883 -65.0877 -65.0870 -65.0856 -65.0856 -65.0850
   -65.0843 -65.0830 -65.0829 -65.0809 -65.0803 -65.0800 -65.0784 -65.0780
   -65.0769 -65.0751 -65.0750 -65.0740 -65.0739 -65.0736 -65.0725 -65.0722
   -65.0707 -65.0705 -65.0699 -65.0692 -65.0689 -65.0674 -65.0670 -65.0669
   -65.0652 -65.0649 -65.0646 -65.0643 -65.0636 -65.0631 -65.0616 -65.0613
   -65.0602 -65.0598 -65.0588 -65.0587 -65.0579 -65.0578 -65.0568 -65.0567
   -65.0564 -65.0561 -65.0554 -65.0549 -65.0543 -65.0534 -65.0531 -65.0528
   -65.0524 -65.0513 -65.0512 -65.0507 -65.0497 -65.0492 -65.0489 -65.0487
   -65.0479 -65.0463 -65.0463 -65.0454 -65.0451 -65.0430 -65.0430 -65.0428
   -65.0414 -65.0392 -65.0391 -65.0381 -65.0365 -65.0362 -65.0350 -65.0342
   -65.0318 -65.0287 -64.9955 -64.9952 -64.9931 -64.9817 -64.9694 -64.9679
   -64.9489 -64.9464 -64.9464 -64.9366 -64.9346 -64.9334 -64.9182 -64.9097
   -64.9071 -64.9038 -64.8971 -64.8953 -64.8847 -64.8770 -64.8764 -64.8751
   -64.8711 -64.8711 -64.8707 -64.8696 -64.8692 -64.8689 -64.8688 -64.8579
   -64.8574 -64.8522 -64.8517 -64.8489 -64.8386 -64.8363 -64.8363 -64.8337
   -64.8334 -64.8325 -64.8297 -64.8291 -64.8254 -64.8215 -64.8183 -64.7820
   -64.7792 -64.7784 -64.7779 -64.7766 -64.7765 -64.7758 -64.7744 -64.7743
   -13.2603 -10.4939 -10.4909  -6.8711  -6.8636  -4.9092  -3.7267  -3.2807
    -3.1262  -2.9655  -2.3625  -2.3038  -2.2282  -2.1198  -1.6369  -1.4908
    -1.4114  -1.3946  -0.9722  -0.9357  -0.8989  -0.7539  -0.4054  -0.3701
    -0.3544  -0.3442  -0.2809  -0.2542  -0.1728  -0.1440  -0.0727  -0.0725
     0.0597   0.0905   0.1045   0.1980   0.1981   0.2020   0.3505   0.3824
     0.4021   0.4669   0.4688   0.6278   0.6610   0.6962   0.6974   0.7055
     0.7310   0.7337   0.7350   0.7477   0.7754   0.7944   0.8019   0.8036
     0.8120   0.8136   0.8559   0.8566   0.8873   0.8896   0.9111   0.9204
     0.9228   0.9640   0.9774   0.9899   0.9901   1.0037   1.0070   1.0171
     1.0198   1.0327   1.0328   1.0939   1.1239   1.1282   1.1626   1.1634
     1.1704   1.1944   1.2011   1.2127   1.2170   1.2529   1.2540   1.2765
     1.2858   1.2998   1.3498   1.3500   1.3678   1.3843   1.3990   1.3992
     1.4361   1.4390   1.4545   1.4759   1.4854   1.4854   1.5125   1.5527
     1.5542   1.5658   1.5697   1.5827   1.6117   1.6304   1.6312   1.6426
     1.6464   1.6586   1.6932   1.6947   1.7226   1.7525   1.7721   1.7768
     1.7772   1.7903   1.7918   1.7955   1.8245   1.8321   1.8385   1.8500
     1.8506   1.8604   1.8624   1.8674   1.8822   1.8861   1.8924   1.9113
     1.9226   1.9247   1.9255   1.9278   1.9333   1.9418   1.9454   1.9544
     1.9555   1.9619   1.9658   1.9664   1.9894   1.9946   1.9955   2.0036
     2.0051   2.0174   2.0176   2.0285   2.0300   2.0386   2.0407   2.0538
     2.0802   2.0835   2.0926   2.1046   2.1053   2.1076   2.1088   2.1170
     2.1296   2.1360   2.1451   2.1531   2.1584   2.1721   2.1889   2.1895
     2.2036   2.2073   2.2152   2.2226   2.2392   2.2533   2.2535   2.2736
     2.2908   2.2915   2.3208   2.3403   2.3426   2.3457   2.3496   2.3538
     2.3989   2.4245   2.4372   2.4427   2.4479   2.4536   2.4703   2.4722
     2.5019   2.5033   2.5128   2.5137   2.5155   2.5197   2.5278   2.5304
     2.5785   2.5839   2.5896   2.5909   2.5957   2.6187   2.6226   2.6238
     2.6293   2.6304   2.6577   2.6709   2.6734   2.6766   2.6844   2.6871
     2.7016   2.7020   2.7153   2.7217   2.7294   2.7298   2.7397   2.7435
     2.7510   2.7592   2.8098   2.8179   2.8212   2.8419   2.8445   2.8583
     2.8652   2.8656   2.8667   2.8678   2.8741   2.8819   2.8847   2.8929
     2.8967   2.9040   2.9078   2.9357   2.9504   2.9506   2.9524   2.9586
     2.9646   2.9708   2.9792   2.9868   2.9957   2.9960   3.0336   3.0338
     3.0458   3.0466   3.0508   3.0576   3.0613   3.0680   3.0695   3.0717
     3.0746   3.0760   3.0871   3.0873   3.0939   3.0947   3.1017   3.1071
     3.1263   3.1328   3.1346   3.1365   3.1381   3.1403   3.1413   3.1429
     3.1658   3.1748   3.1863   3.1885   3.1892   3.2012   3.2057   3.2180
     3.2338   3.3017   3.3679   3.4158   3.4468   3.4499   3.5575   3.6073
     3.6089   3.8595   3.8962   3.9120   3.9260   3.9893   4.2186   4.4927
     4.6466   4.8686   4.8888   5.1118   5.2040   5.2545   5.3229   5.9757
     5.9804   6.1929   6.1980   6.3467   6.3668   6.3708   6.5244   6.7578
     6.7819   6.9826   7.0198   7.0729   7.1780   7.2797   7.5952   7.8758
     7.9003   7.9214   8.0608   8.1728   8.3047   8.3676   8.3935   8.4720
     8.5763   8.7287   8.8450   8.8508   8.9753   9.0155   9.3065   9.3878
     9.3988   9.4943   9.5731   9.7137   9.8201   9.8860   9.8950  10.0132
    10.0514  10.1057  10.1601  10.2379  10.2889  10.4165  10.5386  10.5490
    10.5835  10.5908  10.6106  10.7251  10.7734  10.7981  10.8317  10.8723
    11.0201  11.0606  11.0700  11.1401  11.1556  11.2930  11.4676  11.4811
    11.5271  11.5707  11.6337  11.7446  11.7938  11.8556  11.8678  12.0367
    12.0861  12.1574  12.2300  12.3054  12.4109  12.4360  12.5303  12.5425
    12.5912  12.6570  12.7373  12.7907  12.8396  12.8481  12.9360  12.9592
    13.0005  13.0875  13.1432  13.1541  13.2259  13.3030  13.3738  13.4033
    13.4733  13.5432

          k = 0.0000-0.5774 0.0000 ( 61408 PWs)   bands (ev):

  -107.6837-107.6704-107.6685-107.6671-107.6656-107.6638-107.6633-107.6631
  -107.6627-107.6616-107.6616-107.6610-107.6608-107.6606-107.6598-107.6597
  -107.6593-107.6587-107.6580-107.6574-107.6568-107.6545-107.6543-107.6515
  -107.6513-107.6493-107.6492-107.6481-107.6468-107.6464-107.6451-107.6441
  -107.6441-107.6437-107.6382-107.6341-107.5521-107.5495-107.5495-107.4880
  -107.4854-107.4854-107.4585-107.4560-107.4560-107.4095-107.4086-107.4066
  -107.4062-107.4043-107.4041-107.4036-107.4028-107.4026 -65.1268 -65.1204
   -65.1184 -65.1172 -65.1159 -65.1136 -65.1128 -65.1119 -65.1111 -65.1103
   -65.1099 -65.1093 -65.1088 -65.1076 -65.1054 -65.1033 -65.0997 -65.0991
   -65.0990 -65.0978 -65.0973 -65.0968 -65.0965 -65.0962 -65.0949 -65.0933
   -65.0931 -65.0916 -65.0884 -65.0865 -65.0855 -65.0855 -65.0850 -65.0837
   -65.0832 -65.0806 -65.0791 -65.0784 -65.0768 -65.0762 -65.0761 -65.0758
   -65.0751 -65.0743 -65.0738 -65.0733 -65.0729 -65.0713 -65.0710 -65.0698
   -65.0692 -65.0686 -65.0686 -65.0682 -65.0673 -65.0667 -65.0660 -65.0653
   -65.0636 -65.0633 -65.0625 -65.0624 -65.0618 -65.0613 -65.0612 -65.0610
   -65.0604 -65.0601 -65.0597 -65.0587 -65.0583 -65.0578 -65.0567 -65.0564
   -65.0562 -65.0548 -65.0548 -65.0541 -65.0540 -65.0536 -65.0536 -65.0526
   -65.0520 -65.0515 -65.0512 -65.0509 -65.0509 -65.0503 -65.0494 -65.0491
   -65.0487 -65.0481 -65.0478 -65.0463 -65.0453 -65.0452 -65.0447 -65.0431
   -65.0427 -65.0423 -65.0407 -65.0398 -65.0393 -65.0383 -65.0383 -65.0350
   -65.0326 -65.0304 -64.9966 -64.9960 -64.9939 -64.9816 -64.9689 -64.9662
   -64.9489 -64.9464 -64.9463 -64.9380 -64.9324 -64.9322 -64.9194 -64.9113
   -64.9075 -64.9016 -64.8951 -64.8927 -64.8862 -64.8806 -64.8802 -64.8755
   -64.8734 -64.8730 -64.8723 -64.8720 -64.8711 -64.8689 -64.8689 -64.8542
   -64.8538 -64.8421 -64.8419 -64.8415 -64.8409 -64.8386 -64.8363 -64.8363
   -64.8337 -64.8336 -64.8328 -64.8304 -64.8301 -64.8218 -64.8208 -64.7812
   -64.7802 -64.7785 -64.7781 -64.7762 -64.7762 -64.7757 -64.7745 -64.7744
   -13.2595 -10.4974 -10.4917  -6.8743  -6.8588  -4.8797  -3.2519  -3.1040
    -3.1014  -2.9695  -2.5405  -2.5356  -2.3721  -2.3124  -1.8000  -1.5965
    -1.5681  -1.5668  -1.3158  -1.0651  -1.0387  -0.5523  -0.5005  -0.4095
    -0.3594  -0.3509  -0.3022   0.0449   0.1987   0.2301   0.2466   0.2485
     0.2499   0.2518   0.2547   0.3316   0.3693   0.4122   0.4130   0.4268
     0.4293   0.4456   0.4462   0.4484   0.4486   0.4975   0.4976   0.5008
     0.5009   0.6309   0.6507   0.6548   0.6641   0.6645   0.6695   0.7423
     0.8274   0.8404   0.8466   0.8468   0.8471   0.8524   0.8787   0.8828
     0.8878   0.8940   0.8941   1.0082   1.0089   1.0195   1.0197   1.0283
     1.0429   1.0851   1.0871   1.1176   1.1298   1.1303   1.1732   1.1794
     1.1883   1.1951   1.2208   1.2229   1.2801   1.2813   1.2857   1.3009
     1.3487   1.3499   1.3854   1.3864   1.3932   1.3968   1.4042   1.4242
     1.4251   1.4258   1.4565   1.4949   1.4984   1.5247   1.5275   1.5503
     1.5526   1.5634   1.5688   1.5785   1.5790   1.5855   1.5855   1.6323
     1.6349   1.6366   1.6402   1.6431   1.6551   1.6956   1.6992   1.7047
     1.7051   1.7123   1.7162   1.7182   1.7214   1.7336   1.7570   1.7984
     1.8124   1.8145   1.8163   1.8266   1.8409   1.8617   1.8632   1.8652
     1.8673   1.8680   1.8764   1.9035   1.9103   1.9191   1.9323   1.9340
     1.9407   1.9419   1.9641   1.9711   1.9751   1.9759   2.0029   2.0036
     2.0055   2.0124   2.0140   2.0278   2.0292   2.0345   2.0378   2.0563
     2.0631   2.0890   2.1039   2.1064   2.1529   2.1552   2.1635   2.1646
     2.1672   2.1675   2.1690   2.1714   2.1741   2.1808   2.1915   2.1942
     2.1981   2.2085   2.2113   2.2142   2.2149   2.2188   2.2194   2.2889
     2.2909   2.2963   2.3097   2.3477   2.3481   2.3581   2.3635   2.3715
     2.3787   2.3797   2.3839   2.3912   2.3995   2.4049   2.4217   2.4405
     2.4445   2.4480   2.4523   2.4568   2.4674   2.4807   2.4817   2.4835
     2.4869   2.4990   2.5007   2.5036   2.5077   2.5238   2.5241   2.6070
     2.6118   2.6324   2.6361   2.6560   2.6569   2.6642   2.6664   2.6881
     2.6904   2.7051   2.7208   2.7232   2.7370   2.7371   2.7442   2.7585
     2.7592   2.7720   2.7751   2.7780   2.7816   2.7927   2.8064   2.8065
     2.8173   2.8176   2.8308   2.8648   2.8650   2.8710   2.8720   2.8804
     2.8812   2.8906   2.8997   2.9236   2.9275   2.9443   2.9487   2.9627
     2.9631   2.9813   2.9907   3.0018   3.0065   3.0392   3.0394   3.0594
     3.0689   3.0743   3.0788   3.0961   3.0998   3.1009   3.1021   3.1023
     3.1039   3.1124   3.1355   3.1365   3.1366   3.1369   3.1376   3.1507
     3.1540   3.1588   3.1683   3.1760   3.1873   3.1900   3.1944   3.1975
     3.1975   3.2221   3.2301   3.2412   3.2460   3.2540   3.2550   3.2585
     3.2607   3.3055   3.3816   3.8705   3.9345   3.9503   3.9872   4.4042
     4.4632   4.4648   4.4649   4.4661   4.7166   4.7261   4.7286   4.7304
     5.0305   5.0704   5.1417   5.2037   5.2324   5.2669   5.2962   5.3257
     5.3724   5.5560   5.8841   6.0692   6.1264   6.1508   6.2295   6.2624
     6.2763   6.3207   6.3392   6.6767   6.8310   6.8684   6.9881   7.5519
     7.5744   7.5891   7.8014   7.8060   7.9926   8.3577   8.4035   8.4402
     8.6918   8.7035   8.7181   8.7692   8.9368   9.0057   9.0462   9.2224
     9.3324   9.3547   9.3596   9.3783   9.4545   9.5342   9.6195   9.7479
     9.8186   9.9265   9.9636  10.0325  10.0818  10.2417  10.3122  10.4049
    10.4115  10.5278  10.6211  10.6602  10.6815  10.7784  10.9109  11.0272
    11.0592  11.1023  11.2462  11.2727  11.2889  11.4372  11.4451  11.5088
    11.7420  11.7687  11.8455  12.0231  12.1549  12.2011  12.3081  12.3773
    12.3898  12.4101  12.4531  12.6946  12.6961  12.8161  12.8194  12.9092
    12.9442  13.0471  13.1356  13.1457  13.2333  13.3280  13.3380  13.3593
    13.3997  13.4141  13.4226  13.4551  13.5766  13.6491  13.6631  13.7018
    13.8640  13.8662

          k = 0.2500-0.7217 0.0000 ( 61343 PWs)   bands (ev):

  -107.6837-107.6704-107.6681-107.6676-107.6653-107.6639-107.6633-107.6631
  -107.6624-107.6619-107.6616-107.6613-107.6606-107.6604-107.6599-107.6597
  -107.6594-107.6585-107.6582-107.6574-107.6567-107.6545-107.6543-107.6515
  -107.6513-107.6493-107.6492-107.6480-107.6470-107.6462-107.6448-107.6445
  -107.6440-107.6437-107.6382-107.6341-107.5521-107.5495-107.5495-107.4880
  -107.4854-107.4854-107.4585-107.4560-107.4560-107.4096-107.4081-107.4075
  -107.4055-107.4044-107.4041-107.4037-107.4028-107.4026 -65.1269 -65.1201
   -65.1173 -65.1168 -65.1156 -65.1155 -65.1145 -65.1132 -65.1123 -65.1101
   -65.1096 -65.1088 -65.1059 -65.1049 -65.1039 -65.1031 -65.1027 -65.1015
   -65.0996 -65.0978 -65.0970 -65.0966 -65.0958 -65.0950 -65.0941 -65.0938
   -65.0924 -65.0913 -65.0897 -65.0887 -65.0867 -65.0845 -65.0839 -65.0832
   -65.0816 -65.0809 -65.0803 -65.0791 -65.0786 -65.0769 -65.0765 -65.0759
   -65.0753 -65.0746 -65.0736 -65.0732 -65.0715 -65.0704 -65.0698 -65.0694
   -65.0689 -65.0685 -65.0683 -65.0673 -65.0671 -65.0666 -65.0659 -65.0648
   -65.0645 -65.0639 -65.0631 -65.0631 -65.0623 -65.0615 -65.0606 -65.0604
   -65.0598 -65.0593 -65.0589 -65.0584 -65.0581 -65.0573 -65.0569 -65.0568
   -65.0565 -65.0556 -65.0552 -65.0547 -65.0542 -65.0535 -65.0533 -65.0529
   -65.0526 -65.0523 -65.0516 -65.0510 -65.0508 -65.0502 -65.0501 -65.0491
   -65.0487 -65.0478 -65.0471 -65.0464 -65.0457 -65.0448 -65.0447 -65.0445
   -65.0431 -65.0417 -65.0413 -65.0404 -65.0380 -65.0369 -65.0357 -65.0352
   -65.0344 -65.0308 -64.9965 -64.9958 -64.9943 -64.9814 -64.9689 -64.9663
   -64.9489 -64.9464 -64.9464 -64.9369 -64.9339 -64.9321 -64.9193 -64.9104
   -64.9082 -64.9002 -64.8965 -64.8934 -64.8858 -64.8792 -64.8786 -64.8780
   -64.8762 -64.8754 -64.8711 -64.8689 -64.8688 -64.8688 -64.8651 -64.8646
   -64.8455 -64.8435 -64.8425 -64.8423 -64.8386 -64.8370 -64.8366 -64.8363
   -64.8363 -64.8361 -64.8355 -64.8292 -64.8248 -64.8245 -64.8205 -64.7813
   -64.7798 -64.7793 -64.7775 -64.7763 -64.7762 -64.7757 -64.7745 -64.7743
   -13.2595 -10.4960 -10.4931  -6.8704  -6.8627  -4.8800  -3.3079  -3.2513
    -2.9692  -2.7249  -2.5099  -2.5036  -2.3772  -2.3363  -1.9949  -1.9255
    -1.8399  -1.4526  -1.0815  -1.0013  -0.6399  -0.4927  -0.4876  -0.4192
    -0.3732  -0.1482  -0.1406  -0.1073  -0.0771   0.1017   0.1026   0.1113
     0.2622   0.2732   0.2976   0.2983   0.3115   0.3637   0.3696   0.3722
     0.3923   0.4888   0.4917   0.4926   0.4937   0.5384   0.5583   0.6206
     0.6337   0.6422   0.6536   0.6864   0.6870   0.6877   0.7035   0.7036
     0.7374   0.7481   0.7966   0.8021   0.8272   0.8283   0.8585   0.8615
     0.8681   0.9127   0.9184   0.9425   0.9733   0.9956   0.9970   1.0399
     1.0648   1.1099   1.1167   1.1291   1.1434   1.1516   1.1624   1.1832
     1.2336   1.2482   1.2494   1.2531   1.2639   1.2837   1.3005   1.3215
     1.3262   1.3766   1.3787   1.3947   1.4000   1.4138   1.4199   1.4227
     1.4250   1.4747   1.4777   1.4807   1.4834   1.4947   1.5030   1.5200
     1.5232   1.5360   1.5389   1.5668   1.5733   1.5786   1.5899   1.5998
     1.6060   1.6327   1.6741   1.6779   1.6782   1.6849   1.6921   1.7055
     1.7247   1.7328   1.7484   1.7689   1.7719   1.7786   1.7811   1.7843
     1.8072   1.8157   1.8169   1.8228   1.8254   1.8598   1.8672   1.8702
     1.8761   1.8806   1.8865   1.9021   1.9038   1.9230   1.9248   1.9287
     1.9303   1.9445   1.9591   1.9603   1.9932   1.9951   2.0017   2.0084
     2.0132   2.0173   2.0272   2.0286   2.0401   2.0410   2.0469   2.0537
     2.0546   2.0633   2.0686   2.0728   2.0969   2.1041   2.1070   2.1131
     2.1362   2.1373   2.1390   2.1434   2.1466   2.1521   2.1528   2.1556
     2.1564   2.1607   2.2168   2.2178   2.2668   2.2827   2.2851   2.2871
     2.2923   2.2960   2.3102   2.3147   2.3399   2.3406   2.3537   2.3663
     2.3814   2.3841   2.4186   2.4218   2.4264   2.4474   2.4500   2.4536
     2.4559   2.4572   2.4621   2.4634   2.4664   2.4754   2.4941   2.4971
     2.5083   2.5303   2.5412   2.5429   2.5485   2.5584   2.5688   2.5873
     2.5888   2.5996   2.6091   2.6157   2.6225   2.6373   2.6609   2.6615
     2.6716   2.6768   2.6897   2.7023   2.7079   2.7290   2.7428   2.7498
     2.7592   2.7631   2.7702   2.7838   2.7953   2.8035   2.8145   2.8161
     2.8212   2.8252   2.8265   2.8290   2.8390   2.8470   2.8708   2.8888
     2.9029   2.9080   2.9118   2.9276   2.9552   2.9585   2.9719   2.9830
     3.0009   3.0193   3.0234   3.0271   3.0312   3.0358   3.0395   3.0717
     3.0736   3.0781   3.0795   3.0849   3.0933   3.0942   3.0981   3.0998
     3.1052   3.1067   3.1097   3.1113   3.1163   3.1250   3.1281   3.1363
     3.1394   3.1509   3.1519   3.1624   3.1761   3.1784   3.1871   3.1955
     3.1970   3.2127   3.2229   3.2295   3.2542   3.2740   3.2759   3.4443
     3.4757   3.5411   3.5424   3.6331   3.6388   3.7851   3.9583   3.9736
     4.3599   4.4163   4.4446   4.4492   4.4684   4.7207   4.8043   4.8391
     4.8509   4.8646   5.0699   5.2741   5.3088   5.3217   5.7745   5.7899
     5.8420   5.9778   6.0260   6.0382   6.0690   6.2212   6.2279   6.2639
     6.3714   6.6421   6.6682   6.7805   6.9247   6.9697   7.0557   7.1743
     7.1932   7.2356   7.2827   7.5240   7.6967   7.7558   8.0397   8.0982
     8.4579   8.6248   8.6342   8.7367   8.7446   8.8668   9.1367   9.1873
     9.2862   9.3693   9.4091   9.5378   9.5816   9.6050   9.7606   9.7933
     9.8393  10.0205  10.1197  10.1693  10.2056  10.4062  10.4189  10.5361
    10.5660  10.6588  10.8481  10.9018  11.0021  11.0420  11.1049  11.1753
    11.2164  11.3137  11.4145  11.5902  11.6103  11.6520  11.6822  11.7478
    11.8104  11.9061  11.9371  11.9501  12.0187  12.0967  12.1540  12.2399
    12.3124  12.3811  12.4917  12.5188  12.5643  12.6539  12.6999  12.7475
    12.7588  12.8095  12.8677  12.9167  12.9762  13.0998  13.1649  13.2055
    13.3253  13.3696  13.3975  13.4247  13.5323  13.5893  13.6568  13.7074
    13.7518  13.7746

          k =-0.2500 0.1443 0.0000 ( 61417 PWs)   bands (ev):

  -107.6837-107.6710-107.6676-107.6669-107.6655-107.6640-107.6636-107.6635
  -107.6623-107.6617-107.6616-107.6609-107.6608-107.6607-107.6599-107.6598
  -107.6592-107.6583-107.6580-107.6575-107.6567-107.6546-107.6545-107.6517
  -107.6512-107.6492-107.6492-107.6480-107.6464-107.6462-107.6452-107.6449
  -107.6439-107.6436-107.6383-107.6341-107.5521-107.5495-107.5495-107.4880
  -107.4854-107.4854-107.4585-107.4560-107.4560-107.4103-107.4074-107.4065
  -107.4060-107.4047-107.4045-107.4039-107.4026-107.4026 -65.1278 -65.1204
   -65.1155 -65.1145 -65.1138 -65.1132 -65.1125 -65.1114 -65.1099 -65.1090
   -65.1076 -65.1072 -65.1064 -65.1056 -65.1034 -65.1016 -65.1004 -65.0989
   -65.0982 -65.0977 -65.0961 -65.0958 -65.0958 -65.0947 -65.0936 -65.0934
   -65.0927 -65.0911 -65.0883 -65.0877 -65.0870 -65.0856 -65.0856 -65.0850
   -65.0843 -65.0830 -65.0829 -65.0809 -65.0803 -65.0800 -65.0784 -65.0780
   -65.0769 -65.0751 -65.0750 -65.0740 -65.0739 -65.0736 -65.0724 -65.0722
   -65.0707 -65.0705 -65.0699 -65.0692 -65.0689 -65.0674 -65.0670 -65.0669
   -65.0652 -65.0649 -65.0646 -65.0643 -65.0636 -65.0631 -65.0616 -65.0613
   -65.0602 -65.0598 -65.0588 -65.0587 -65.0579 -65.0578 -65.0568 -65.0567
   -65.0564 -65.0561 -65.0554 -65.0549 -65.0543 -65.0534 -65.0531 -65.0528
   -65.0524 -65.0513 -65.0512 -65.0507 -65.0497 -65.0492 -65.0489 -65.0487
   -65.0479 -65.0463 -65.0463 -65.0454 -65.0451 -65.0431 -65.0430 -65.0428
   -65.0414 -65.0392 -65.0391 -65.0381 -65.0365 -65.0362 -65.0350 -65.0342
   -65.0318 -65.0287 -64.9955 -64.9952 -64.9931 -64.9817 -64.9694 -64.9679
   -64.9489 -64.9464 -64.9464 -64.9366 -64.9346 -64.9334 -64.9182 -64.9097
   -64.9071 -64.9038 -64.8971 -64.8953 -64.8847 -64.8770 -64.8764 -64.8751
   -64.8711 -64.8711 -64.8707 -64.8696 -64.8692 -64.8689 -64.8688 -64.8579
   -64.8574 -64.8522 -64.8517 -64.8489 -64.8386 -64.8363 -64.8363 -64.8337
   -64.8334 -64.8325 -64.8297 -64.8291 -64.8254 -64.8215 -64.8183 -64.7820
   -64.7792 -64.7784 -64.7779 -64.7766 -64.7765 -64.7758 -64.7744 -64.7743
   -13.2603 -10.4937 -10.4911  -6.8715  -6.8631  -4.9092  -3.7267  -3.2807
    -3.1262  -2.9655  -2.3624  -2.3039  -2.2282  -2.1198  -1.6369  -1.4908
    -1.4114  -1.3946  -0.9722  -0.9357  -0.8989  -0.7539  -0.4052  -0.3702
    -0.3544  -0.3443  -0.2809  -0.2542  -0.1728  -0.1440  -0.0727  -0.0725
     0.0597   0.0905   0.1045   0.1980   0.1981   0.2020   0.3505   0.3824
     0.4021   0.4669   0.4688   0.6279   0.6610   0.6962   0.6974   0.7055
     0.7310   0.7337   0.7350   0.7477   0.7754   0.7944   0.8019   0.8036
     0.8120   0.8136   0.8559   0.8566   0.8873   0.8896   0.9111   0.9204
     0.9228   0.9640   0.9774   0.9899   0.9901   1.0037   1.0070   1.0171
     1.0198   1.0327   1.0328   1.0939   1.1239   1.1281   1.1626   1.1634
     1.1704   1.1944   1.2011   1.2127   1.2170   1.2529   1.2540   1.2765
     1.2858   1.2999   1.3498   1.3500   1.3678   1.3843   1.3990   1.3992
     1.4361   1.4390   1.4545   1.4759   1.4854   1.4854   1.5125   1.5527
     1.5542   1.5658   1.5697   1.5827   1.6117   1.6304   1.6312   1.6426
     1.6464   1.6586   1.6932   1.6947   1.7226   1.7525   1.7721   1.7768
     1.7772   1.7903   1.7918   1.7955   1.8245   1.8321   1.8385   1.8500
     1.8506   1.8604   1.8624   1.8674   1.8822   1.8861   1.8924   1.9113
     1.9226   1.9247   1.9255   1.9278   1.9333   1.9418   1.9454   1.9544
     1.9555   1.9619   1.9658   1.9664   1.9894   1.9946   1.9955   2.0036
     2.0051   2.0174   2.0176   2.0285   2.0300   2.0386   2.0407   2.0538
     2.0802   2.0835   2.0926   2.1046   2.1053   2.1076   2.1088   2.1170
     2.1296   2.1360   2.1451   2.1531   2.1584   2.1721   2.1889   2.1895
     2.2036   2.2073   2.2152   2.2226   2.2392   2.2533   2.2535   2.2736
     2.2908   2.2915   2.3208   2.3403   2.3426   2.3457   2.3496   2.3538
     2.3989   2.4245   2.4372   2.4427   2.4479   2.4536   2.4703   2.4722
     2.5019   2.5033   2.5128   2.5137   2.5155   2.5197   2.5278   2.5304
     2.5785   2.5839   2.5896   2.5909   2.5957   2.6187   2.6226   2.6238
     2.6293   2.6304   2.6577   2.6709   2.6734   2.6766   2.6844   2.6871
     2.7016   2.7020   2.7153   2.7217   2.7294   2.7298   2.7397   2.7435
     2.7510   2.7592   2.8098   2.8179   2.8212   2.8419   2.8445   2.8583
     2.8652   2.8656   2.8667   2.8678   2.8741   2.8819   2.8847   2.8929
     2.8967   2.9040   2.9078   2.9357   2.9504   2.9506   2.9524   2.9586
     2.9646   2.9708   2.9792   2.9869   2.9957   2.9960   3.0336   3.0338
     3.0458   3.0466   3.0508   3.0576   3.0613   3.0680   3.0695   3.0717
     3.0746   3.0760   3.0871   3.0873   3.0939   3.0947   3.1017   3.1071
     3.1263   3.1328   3.1346   3.1365   3.1381   3.1403   3.1413   3.1429
     3.1658   3.1748   3.1863   3.1885   3.1892   3.2012   3.2057   3.2180
     3.2338   3.3017   3.3679   3.4157   3.4468   3.4499   3.5575   3.6073
     3.6089   3.8595   3.8962   3.9120   3.9260   3.9893   4.2186   4.4927
     4.6466   4.8686   4.8888   5.1118   5.2040   5.2545   5.3229   5.9757
     5.9804   6.1929   6.1980   6.3467   6.3668   6.3708   6.5244   6.7577
     6.7819   6.9826   7.0198   7.0729   7.1780   7.2797   7.5952   7.8758
     7.9003   7.9214   8.0608   8.1729   8.3047   8.3676   8.3935   8.4720
     8.5763   8.7288   8.8450   8.8508   8.9753   9.0155   9.3065   9.3878
     9.3988   9.4943   9.5732   9.7137   9.8201   9.8860   9.8950  10.0132
    10.0514  10.1057  10.1601  10.2379  10.2889  10.4165  10.5386  10.5490
    10.5835  10.5908  10.6105  10.7251  10.7734  10.7981  10.8317  10.8723
    11.0201  11.0606  11.0700  11.1401  11.1556  11.2930  11.4676  11.4811
    11.5271  11.5707  11.6336  11.7446  11.7937  11.8557  11.8678  12.0367
    12.0862  12.1574  12.2300  12.3054  12.4110  12.4360  12.5303  12.5425
    12.5912  12.6570  12.7373  12.7907  12.8397  12.8481  12.9360  12.9592
    13.0005  13.0875  13.1432  13.1541  13.2259  13.3030  13.3738  13.4033
    13.4733  13.5431

          k = 0.2500 0.1443 0.0000 ( 61417 PWs)   bands (ev):

  -107.6837-107.6710-107.6676-107.6669-107.6654-107.6640-107.6636-107.6635
  -107.6623-107.6617-107.6616-107.6609-107.6608-107.6607-107.6599-107.6598
  -107.6592-107.6583-107.6580-107.6575-107.6567-107.6546-107.6545-107.6517
  -107.6512-107.6493-107.6492-107.6480-107.6464-107.6462-107.6452-107.6449
  -107.6439-107.6436-107.6383-107.6341-107.5521-107.5495-107.5495-107.4880
  -107.4854-107.4854-107.4585-107.4560-107.4560-107.4103-107.4074-107.4065
  -107.4060-107.4047-107.4045-107.4039-107.4026-107.4026 -65.1278 -65.1204
   -65.1155 -65.1145 -65.1138 -65.1132 -65.1125 -65.1114 -65.1099 -65.1090
   -65.1076 -65.1072 -65.1064 -65.1056 -65.1034 -65.1016 -65.1004 -65.0989
   -65.0982 -65.0977 -65.0961 -65.0958 -65.0958 -65.0947 -65.0936 -65.0934
   -65.0927 -65.0911 -65.0883 -65.0877 -65.0870 -65.0856 -65.0856 -65.0850
   -65.0843 -65.0830 -65.0829 -65.0809 -65.0803 -65.0800 -65.0784 -65.0780
   -65.0769 -65.0751 -65.0750 -65.0740 -65.0739 -65.0736 -65.0724 -65.0722
   -65.0707 -65.0705 -65.0699 -65.0692 -65.0689 -65.0674 -65.0670 -65.0669
   -65.0652 -65.0649 -65.0646 -65.0643 -65.0636 -65.0631 -65.0616 -65.0613
   -65.0602 -65.0598 -65.0588 -65.0587 -65.0579 -65.0578 -65.0568 -65.0567
   -65.0564 -65.0561 -65.0554 -65.0549 -65.0543 -65.0534 -65.0531 -65.0528
   -65.0524 -65.0513 -65.0512 -65.0507 -65.0497 -65.0492 -65.0489 -65.0487
   -65.0479 -65.0463 -65.0463 -65.0454 -65.0451 -65.0430 -65.0430 -65.0428
   -65.0414 -65.0392 -65.0391 -65.0381 -65.0365 -65.0362 -65.0350 -65.0342
   -65.0318 -65.0287 -64.9955 -64.9952 -64.9931 -64.9817 -64.9694 -64.9679
   -64.9489 -64.9464 -64.9464 -64.9366 -64.9346 -64.9334 -64.9182 -64.9097
   -64.9071 -64.9038 -64.8971 -64.8953 -64.8847 -64.8770 -64.8764 -64.8751
   -64.8711 -64.8711 -64.8707 -64.8696 -64.8692 -64.8689 -64.8688 -64.8579
   -64.8574 -64.8522 -64.8517 -64.8489 -64.8386 -64.8363 -64.8363 -64.8337
   -64.8334 -64.8325 -64.8297 -64.8291 -64.8254 -64.8215 -64.8183 -64.7820
   -64.7792 -64.7784 -64.7779 -64.7766 -64.7765 -64.7758 -64.7744 -64.7743
   -13.2603 -10.4937 -10.4911  -6.8715  -6.8632  -4.9092  -3.7267  -3.2807
    -3.1262  -2.9655  -2.3625  -2.3038  -2.2282  -2.1198  -1.6369  -1.4908
    -1.4114  -1.3946  -0.9722  -0.9357  -0.8989  -0.7539  -0.4053  -0.3701
    -0.3544  -0.3442  -0.2809  -0.2542  -0.1728  -0.1440  -0.0727  -0.0725
     0.0597   0.0905   0.1045   0.1980   0.1981   0.2020   0.3505   0.3824
     0.4021   0.4669   0.4688   0.6278   0.6610   0.6962   0.6974   0.7055
     0.7310   0.7337   0.7350   0.7477   0.7754   0.7944   0.8019   0.8036
     0.8120   0.8136   0.8559   0.8566   0.8873   0.8896   0.9111   0.9204
     0.9228   0.9640   0.9774   0.9899   0.9901   1.0037   1.0070   1.0171
     1.0198   1.0327   1.0328   1.0939   1.1239   1.1281   1.1626   1.1634
     1.1704   1.1944   1.2011   1.2127   1.2170   1.2529   1.2540   1.2765
     1.2858   1.2999   1.3498   1.3500   1.3678   1.3843   1.3990   1.3992
     1.4361   1.4390   1.4545   1.4759   1.4854   1.4854   1.5125   1.5527
     1.5542   1.5658   1.5697   1.5827   1.6117   1.6304   1.6312   1.6426
     1.6464   1.6586   1.6932   1.6947   1.7226   1.7525   1.7721   1.7768
     1.7772   1.7903   1.7918   1.7955   1.8245   1.8321   1.8385   1.8500
     1.8506   1.8604   1.8624   1.8674   1.8822   1.8861   1.8924   1.9113
     1.9226   1.9247   1.9255   1.9278   1.9333   1.9418   1.9454   1.9544
     1.9555   1.9619   1.9658   1.9664   1.9894   1.9946   1.9955   2.0036
     2.0051   2.0174   2.0176   2.0285   2.0300   2.0386   2.0407   2.0538
     2.0802   2.0835   2.0926   2.1046   2.1053   2.1076   2.1088   2.1170
     2.1296   2.1360   2.1451   2.1531   2.1584   2.1721   2.1889   2.1895
     2.2036   2.2073   2.2152   2.2226   2.2392   2.2533   2.2535   2.2736
     2.2908   2.2915   2.3208   2.3403   2.3426   2.3457   2.3496   2.3538
     2.3989   2.4245   2.4372   2.4427   2.4479   2.4536   2.4703   2.4722
     2.5019   2.5033   2.5128   2.5137   2.5155   2.5197   2.5278   2.5304
     2.5785   2.5839   2.5896   2.5909   2.5957   2.6187   2.6226   2.6238
     2.6293   2.6304   2.6577   2.6709   2.6734   2.6766   2.6844   2.6871
     2.7016   2.7020   2.7153   2.7217   2.7294   2.7298   2.7397   2.7435
     2.7510   2.7592   2.8098   2.8179   2.8212   2.8419   2.8445   2.8583
     2.8652   2.8656   2.8667   2.8678   2.8741   2.8819   2.8847   2.8929
     2.8967   2.9040   2.9078   2.9357   2.9504   2.9506   2.9524   2.9586
     2.9646   2.9708   2.9792   2.9869   2.9957   2.9960   3.0336   3.0338
     3.0458   3.0466   3.0508   3.0576   3.0613   3.0680   3.0695   3.0717
     3.0746   3.0760   3.0871   3.0873   3.0939   3.0947   3.1017   3.1071
     3.1263   3.1328   3.1346   3.1365   3.1381   3.1403   3.1413   3.1429
     3.1658   3.1748   3.1863   3.1885   3.1892   3.2012   3.2057   3.2180
     3.2338   3.3017   3.3679   3.4157   3.4468   3.4499   3.5575   3.6073
     3.6089   3.8595   3.8962   3.9120   3.9260   3.9893   4.2186   4.4927
     4.6466   4.8686   4.8888   5.1118   5.2040   5.2545   5.3229   5.9757
     5.9804   6.1929   6.1980   6.3467   6.3668   6.3708   6.5244   6.7577
     6.7819   6.9826   7.0198   7.0729   7.1780   7.2797   7.5952   7.8758
     7.9003   7.9214   8.0608   8.1729   8.3047   8.3676   8.3935   8.4720
     8.5763   8.7288   8.8450   8.8508   8.9753   9.0155   9.3065   9.3878
     9.3988   9.4943   9.5732   9.7137   9.8201   9.8860   9.8950  10.0132
    10.0514  10.1057  10.1601  10.2379  10.2889  10.4165  10.5386  10.5490
    10.5835  10.5908  10.6105  10.7251  10.7734  10.7981  10.8317  10.8723
    11.0201  11.0606  11.0700  11.1401  11.1556  11.2930  11.4676  11.4811
    11.5271  11.5707  11.6337  11.7446  11.7937  11.8557  11.8678  12.0366
    12.0862  12.1574  12.2300  12.3054  12.4110  12.4360  12.5303  12.5425
    12.5912  12.6570  12.7373  12.7907  12.8397  12.8481  12.9360  12.9592
    13.0005  13.0875  13.1432  13.1541  13.2259  13.3030  13.3738  13.4033
    13.4732  13.5431

          k = 0.5000-0.2887 0.0000 ( 61408 PWs)   bands (ev):

  -107.6837-107.6704-107.6685-107.6671-107.6656-107.6638-107.6633-107.6631
  -107.6627-107.6616-107.6616-107.6610-107.6608-107.6606-107.6598-107.6597
  -107.6593-107.6587-107.6580-107.6574-107.6568-107.6545-107.6543-107.6515
  -107.6513-107.6493-107.6492-107.6481-107.6468-107.6464-107.6451-107.6442
  -107.6441-107.6437-107.6382-107.6341-107.5521-107.5495-107.5495-107.4880
  -107.4854-107.4854-107.4585-107.4560-107.4560-107.4095-107.4086-107.4066
  -107.4062-107.4043-107.4041-107.4037-107.4028-107.4026 -65.1268 -65.1204
   -65.1184 -65.1172 -65.1159 -65.1136 -65.1128 -65.1119 -65.1111 -65.1103
   -65.1099 -65.1093 -65.1088 -65.1076 -65.1054 -65.1033 -65.0997 -65.0991
   -65.0990 -65.0978 -65.0973 -65.0968 -65.0965 -65.0962 -65.0949 -65.0933
   -65.0931 -65.0916 -65.0884 -65.0865 -65.0855 -65.0855 -65.0850 -65.0837
   -65.0832 -65.0806 -65.0791 -65.0784 -65.0768 -65.0762 -65.0761 -65.0758
   -65.0751 -65.0743 -65.0738 -65.0733 -65.0729 -65.0713 -65.0710 -65.0698
   -65.0692 -65.0686 -65.0686 -65.0682 -65.0673 -65.0667 -65.0660 -65.0653
   -65.0636 -65.0633 -65.0625 -65.0624 -65.0618 -65.0613 -65.0612 -65.0610
   -65.0604 -65.0601 -65.0597 -65.0587 -65.0583 -65.0578 -65.0567 -65.0564
   -65.0562 -65.0548 -65.0548 -65.0541 -65.0540 -65.0536 -65.0536 -65.0526
   -65.0521 -65.0515 -65.0512 -65.0509 -65.0509 -65.0503 -65.0494 -65.0491
   -65.0487 -65.0481 -65.0478 -65.0463 -65.0453 -65.0452 -65.0447 -65.0431
   -65.0427 -65.0423 -65.0407 -65.0398 -65.0393 -65.0383 -65.0383 -65.0350
   -65.0326 -65.0304 -64.9966 -64.9960 -64.9939 -64.9816 -64.9689 -64.9662
   -64.9489 -64.9464 -64.9463 -64.9380 -64.9324 -64.9322 -64.9194 -64.9113
   -64.9075 -64.9016 -64.8951 -64.8927 -64.8862 -64.8806 -64.8802 -64.8756
   -64.8734 -64.8730 -64.8723 -64.8720 -64.8711 -64.8689 -64.8688 -64.8542
   -64.8538 -64.8421 -64.8419 -64.8415 -64.8409 -64.8386 -64.8363 -64.8363
   -64.8337 -64.8336 -64.8328 -64.8304 -64.8301 -64.8218 -64.8209 -64.7812
   -64.7802 -64.7785 -64.7781 -64.7762 -64.7762 -64.7757 -64.7745 -64.7744
   -13.2595 -10.4972 -10.4919  -6.8748  -6.8584  -4.8797  -3.2519  -3.1040
    -3.1014  -2.9694  -2.5404  -2.5356  -2.3720  -2.3125  -1.8000  -1.5965
    -1.5681  -1.5668  -1.3158  -1.0651  -1.0387  -0.5523  -0.5005  -0.4093
    -0.3594  -0.3510  -0.3022   0.0449   0.1988   0.2301   0.2466   0.2485
     0.2499   0.2518   0.2547   0.3316   0.3693   0.4122   0.4130   0.4268
     0.4293   0.4456   0.4462   0.4484   0.4486   0.4975   0.4976   0.5008
     0.5009   0.6309   0.6507   0.6548   0.6641   0.6645   0.6695   0.7423
     0.8274   0.8404   0.8466   0.8468   0.8471   0.8524   0.8787   0.8828
     0.8878   0.8940   0.8941   1.0082   1.0089   1.0195   1.0197   1.0283
     1.0429   1.0851   1.0872   1.1176   1.1298   1.1303   1.1732   1.1794
     1.1882   1.1951   1.2208   1.2229   1.2801   1.2813   1.2857   1.3009
     1.3487   1.3499   1.3854   1.3864   1.3932   1.3968   1.4042   1.4242
     1.4251   1.4258   1.4565   1.4949   1.4984   1.5246   1.5275   1.5503
     1.5526   1.5634   1.5688   1.5785   1.5790   1.5855   1.5855   1.6323
     1.6349   1.6366   1.6402   1.6431   1.6551   1.6956   1.6992   1.7047
     1.7051   1.7123   1.7162   1.7182   1.7214   1.7336   1.7570   1.7984
     1.8124   1.8145   1.8163   1.8266   1.8409   1.8617   1.8632   1.8652
     1.8673   1.8680   1.8764   1.9035   1.9103   1.9191   1.9323   1.9340
     1.9407   1.9419   1.9641   1.9711   1.9751   1.9759   2.0028   2.0036
     2.0055   2.0124   2.0140   2.0278   2.0292   2.0345   2.0378   2.0563
     2.0631   2.0890   2.1039   2.1064   2.1529   2.1552   2.1635   2.1646
     2.1672   2.1675   2.1690   2.1714   2.1741   2.1808   2.1915   2.1942
     2.1981   2.2085   2.2113   2.2142   2.2149   2.2188   2.2194   2.2889
     2.2909   2.2963   2.3097   2.3477   2.3481   2.3581   2.3635   2.3715
     2.3787   2.3797   2.3839   2.3912   2.3995   2.4049   2.4217   2.4405
     2.4445   2.4480   2.4523   2.4568   2.4674   2.4807   2.4817   2.4835
     2.4869   2.4990   2.5007   2.5036   2.5077   2.5238   2.5241   2.6070
     2.6118   2.6324   2.6361   2.6560   2.6569   2.6642   2.6664   2.6881
     2.6904   2.7050   2.7208   2.7232   2.7370   2.7371   2.7442   2.7585
     2.7592   2.7720   2.7751   2.7780   2.7816   2.7927   2.8064   2.8065
     2.8173   2.8176   2.8308   2.8648   2.8650   2.8710   2.8720   2.8804
     2.8812   2.8906   2.8997   2.9236   2.9275   2.9443   2.9487   2.9627
     2.9631   2.9813   2.9907   3.0018   3.0065   3.0392   3.0394   3.0594
     3.0689   3.0743   3.0788   3.0961   3.0998   3.1009   3.1021   3.1023
     3.1039   3.1124   3.1355   3.1365   3.1366   3.1369   3.1376   3.1507
     3.1540   3.1588   3.1683   3.1760   3.1873   3.1900   3.1944   3.1975
     3.1975   3.2221   3.2301   3.2412   3.2460   3.2540   3.2550   3.2585
     3.2607   3.3055   3.3816   3.8705   3.9345   3.9503   3.9872   4.4042
     4.4632   4.4648   4.4649   4.4661   4.7166   4.7261   4.7286   4.7304
     5.0305   5.0704   5.1417   5.2037   5.2324   5.2669   5.2962   5.3257
     5.3724   5.5560   5.8841   6.0692   6.1264   6.1508   6.2295   6.2624
     6.2763   6.3207   6.3392   6.6767   6.8310   6.8685   6.9881   7.5519
     7.5744   7.5891   7.8014   7.8060   7.9924   8.3577   8.4035   8.4402
     8.6918   8.7035   8.7181   8.7692   8.9369   9.0057   9.0462   9.2223
     9.3324   9.3547   9.3596   9.3783   9.4545   9.5343   9.6195   9.7479
     9.8185   9.9265   9.9636  10.0325  10.0818  10.2417  10.3122  10.4049
    10.4115  10.5278  10.6211  10.6602  10.6815  10.7783  10.9109  11.0272
    11.0593  11.1024  11.2462  11.2727  11.2889  11.4372  11.4451  11.5089
    11.7420  11.7687  11.8454  12.0231  12.1550  12.2011  12.3083  12.3774
    12.3897  12.4101  12.4531  12.6947  12.6961  12.8161  12.8193  12.9092
    12.9440  13.0472  13.1356  13.1457  13.2333  13.3280  13.3380  13.3593
    13.3998  13.4141  13.4227  13.4551  13.5768  13.6491  13.6631  13.7017
    13.8642  13.8663

          k =-0.5000-0.2887 0.0000 ( 61408 PWs)   bands (ev):

  -107.6837-107.6704-107.6685-107.6671-107.6656-107.6638-107.6633-107.6631
  -107.6627-107.6616-107.6616-107.6610-107.6608-107.6606-107.6598-107.6597
  -107.6593-107.6587-107.6580-107.6574-107.6568-107.6545-107.6543-107.6515
  -107.6513-107.6493-107.6492-107.6481-107.6468-107.6464-107.6451-107.6442
  -107.6441-107.6437-107.6382-107.6341-107.5521-107.5495-107.5495-107.4880
  -107.4854-107.4854-107.4585-107.4560-107.4560-107.4095-107.4085-107.4066
  -107.4062-107.4043-107.4041-107.4036-107.4028-107.4026 -65.1268 -65.1204
   -65.1184 -65.1172 -65.1159 -65.1136 -65.1128 -65.1119 -65.1111 -65.1103
   -65.1099 -65.1093 -65.1088 -65.1076 -65.1054 -65.1033 -65.0997 -65.0991
   -65.0990 -65.0978 -65.0973 -65.0968 -65.0965 -65.0962 -65.0949 -65.0933
   -65.0931 -65.0916 -65.0884 -65.0865 -65.0855 -65.0855 -65.0850 -65.0837
   -65.0832 -65.0806 -65.0791 -65.0784 -65.0768 -65.0762 -65.0761 -65.0758
   -65.0751 -65.0743 -65.0738 -65.0733 -65.0729 -65.0713 -65.0710 -65.0698
   -65.0692 -65.0686 -65.0686 -65.0682 -65.0673 -65.0667 -65.0660 -65.0653
   -65.0636 -65.0633 -65.0625 -65.0624 -65.0618 -65.0613 -65.0612 -65.0610
   -65.0604 -65.0601 -65.0597 -65.0587 -65.0583 -65.0578 -65.0567 -65.0564
   -65.0562 -65.0548 -65.0548 -65.0541 -65.0540 -65.0536 -65.0536 -65.0526
   -65.0520 -65.0515 -65.0512 -65.0509 -65.0509 -65.0503 -65.0494 -65.0491
   -65.0487 -65.0481 -65.0478 -65.0463 -65.0453 -65.0452 -65.0447 -65.0431
   -65.0427 -65.0423 -65.0407 -65.0398 -65.0393 -65.0383 -65.0383 -65.0350
   -65.0326 -65.0304 -64.9966 -64.9960 -64.9939 -64.9816 -64.9689 -64.9662
   -64.9489 -64.9464 -64.9463 -64.9380 -64.9324 -64.9322 -64.9194 -64.9113
   -64.9075 -64.9016 -64.8951 -64.8927 -64.8862 -64.8806 -64.8802 -64.8756
   -64.8734 -64.8730 -64.8723 -64.8720 -64.8711 -64.8689 -64.8688 -64.8542
   -64.8538 -64.8421 -64.8419 -64.8415 -64.8409 -64.8386 -64.8363 -64.8363
   -64.8337 -64.8336 -64.8328 -64.8304 -64.8301 -64.8218 -64.8208 -64.7812
   -64.7802 -64.7785 -64.7781 -64.7762 -64.7762 -64.7757 -64.7745 -64.7744
   -13.2595 -10.4972 -10.4918  -6.8747  -6.8584  -4.8797  -3.2519  -3.1040
    -3.1014  -2.9694  -2.5405  -2.5356  -2.3721  -2.3124  -1.8000  -1.5965
    -1.5681  -1.5668  -1.3158  -1.0651  -1.0387  -0.5523  -0.5005  -0.4094
    -0.3594  -0.3510  -0.3022   0.0449   0.1988   0.2301   0.2466   0.2485
     0.2499   0.2518   0.2547   0.3316   0.3693   0.4122   0.4130   0.4268
     0.4293   0.4456   0.4462   0.4484   0.4486   0.4975   0.4976   0.5008
     0.5009   0.6309   0.6507   0.6548   0.6641   0.6645   0.6695   0.7423
     0.8274   0.8404   0.8466   0.8468   0.8471   0.8524   0.8787   0.8828
     0.8878   0.8941   0.8941   1.0082   1.0089   1.0195   1.0197   1.0283
     1.0429   1.0851   1.0872   1.1176   1.1298   1.1303   1.1732   1.1794
     1.1882   1.1951   1.2208   1.2229   1.2801   1.2813   1.2857   1.3009
     1.3487   1.3499   1.3854   1.3864   1.3932   1.3968   1.4042   1.4242
     1.4251   1.4258   1.4565   1.4949   1.4984   1.5247   1.5275   1.5503
     1.5526   1.5634   1.5688   1.5785   1.5790   1.5855   1.5855   1.6323
     1.6349   1.6366   1.6402   1.6431   1.6551   1.6956   1.6992   1.7047
     1.7051   1.7123   1.7162   1.7182   1.7214   1.7336   1.7570   1.7984
     1.8124   1.8145   1.8163   1.8266   1.8409   1.8617   1.8632   1.8652
     1.8673   1.8680   1.8764   1.9035   1.9103   1.9191   1.9323   1.9340
     1.9407   1.9419   1.9641   1.9711   1.9751   1.9759   2.0028   2.0036
     2.0055   2.0124   2.0140   2.0278   2.0292   2.0345   2.0378   2.0563
     2.0631   2.0890   2.1039   2.1064   2.1529   2.1552   2.1635   2.1646
     2.1672   2.1675   2.1690   2.1714   2.1741   2.1808   2.1915   2.1942
     2.1981   2.2085   2.2113   2.2142   2.2149   2.2188   2.2194   2.2889
     2.2909   2.2963   2.3097   2.3477   2.3481   2.3581   2.3635   2.3715
     2.3787   2.3797   2.3839   2.3912   2.3995   2.4049   2.4217   2.4405
     2.4445   2.4480   2.4523   2.4568   2.4674   2.4807   2.4817   2.4835
     2.4869   2.4990   2.5007   2.5036   2.5077   2.5238   2.5241   2.6070
     2.6118   2.6324   2.6361   2.6560   2.6569   2.6642   2.6664   2.6881
     2.6904   2.7051   2.7208   2.7232   2.7370   2.7371   2.7442   2.7585
     2.7592   2.7720   2.7751   2.7780   2.7816   2.7927   2.8064   2.8065
     2.8173   2.8176   2.8308   2.8648   2.8650   2.8710   2.8720   2.8804
     2.8812   2.8906   2.8997   2.9236   2.9275   2.9443   2.9487   2.9627
     2.9631   2.9813   2.9907   3.0018   3.0065   3.0392   3.0394   3.0594
     3.0689   3.0743   3.0788   3.0961   3.0998   3.1009   3.1021   3.1023
     3.1039   3.1124   3.1355   3.1365   3.1366   3.1369   3.1376   3.1507
     3.1540   3.1588   3.1683   3.1760   3.1873   3.1900   3.1944   3.1975
     3.1975   3.2221   3.2301   3.2412   3.2460   3.2540   3.2550   3.2585
     3.2607   3.3055   3.3816   3.8705   3.9345   3.9503   3.9872   4.4042
     4.4632   4.4648   4.4649   4.4661   4.7166   4.7261   4.7286   4.7304
     5.0305   5.0704   5.1417   5.2037   5.2324   5.2669   5.2962   5.3257
     5.3724   5.5560   5.8841   6.0692   6.1264   6.1508   6.2295   6.2624
     6.2763   6.3207   6.3392   6.6767   6.8310   6.8685   6.9881   7.5519
     7.5744   7.5891   7.8014   7.8060   7.9925   8.3577   8.4035   8.4402
     8.6918   8.7035   8.7181   8.7692   8.9369   9.0057   9.0462   9.2224
     9.3324   9.3547   9.3596   9.3783   9.4545   9.5343   9.6195   9.7479
     9.8186   9.9265   9.9636  10.0325  10.0818  10.2417  10.3122  10.4049
    10.4115  10.5278  10.6211  10.6602  10.6815  10.7783  10.9109  11.0272
    11.0593  11.1024  11.2462  11.2726  11.2889  11.4372  11.4451  11.5089
    11.7420  11.7687  11.8454  12.0231  12.1550  12.2011  12.3081  12.3775
    12.3897  12.4101  12.4531  12.6946  12.6961  12.8161  12.8193  12.9092
    12.9440  13.0472  13.1356  13.1457  13.2333  13.3280  13.3380  13.3593
    13.3998  13.4141  13.4227  13.4551  13.5767  13.6490  13.6631  13.7017
    13.8639  13.8663

          k =-0.2500-0.7217 0.0000 ( 61343 PWs)   bands (ev):

  -107.6837-107.6704-107.6681-107.6676-107.6653-107.6639-107.6633-107.6631
  -107.6624-107.6619-107.6616-107.6613-107.6606-107.6604-107.6599-107.6597
  -107.6593-107.6585-107.6582-107.6574-107.6567-107.6545-107.6543-107.6515
  -107.6513-107.6493-107.6492-107.6480-107.6470-107.6462-107.6448-107.6445
  -107.6440-107.6437-107.6382-107.6341-107.5521-107.5495-107.5495-107.4880
  -107.4854-107.4854-107.4585-107.4560-107.4560-107.4096-107.4081-107.4075
  -107.4055-107.4044-107.4041-107.4038-107.4028-107.4026 -65.1269 -65.1201
   -65.1173 -65.1168 -65.1156 -65.1155 -65.1145 -65.1132 -65.1123 -65.1101
   -65.1096 -65.1088 -65.1059 -65.1049 -65.1039 -65.1031 -65.1027 -65.1015
   -65.0996 -65.0978 -65.0970 -65.0966 -65.0958 -65.0950 -65.0941 -65.0938
   -65.0924 -65.0913 -65.0897 -65.0887 -65.0867 -65.0845 -65.0839 -65.0832
   -65.0816 -65.0809 -65.0803 -65.0791 -65.0786 -65.0769 -65.0765 -65.0759
   -65.0753 -65.0746 -65.0736 -65.0732 -65.0715 -65.0704 -65.0698 -65.0694
   -65.0689 -65.0685 -65.0683 -65.0673 -65.0671 -65.0666 -65.0659 -65.0648
   -65.0645 -65.0639 -65.0631 -65.0631 -65.0623 -65.0615 -65.0606 -65.0604
   -65.0598 -65.0593 -65.0589 -65.0584 -65.0581 -65.0573 -65.0569 -65.0568
   -65.0565 -65.0556 -65.0552 -65.0547 -65.0542 -65.0535 -65.0533 -65.0529
   -65.0526 -65.0523 -65.0516 -65.0510 -65.0508 -65.0502 -65.0501 -65.0491
   -65.0487 -65.0478 -65.0471 -65.0464 -65.0457 -65.0448 -65.0447 -65.0445
   -65.0431 -65.0417 -65.0413 -65.0404 -65.0380 -65.0369 -65.0357 -65.0352
   -65.0344 -65.0308 -64.9965 -64.9958 -64.9943 -64.9814 -64.9689 -64.9663
   -64.9489 -64.9464 -64.9464 -64.9369 -64.9339 -64.9321 -64.9193 -64.9104
   -64.9082 -64.9002 -64.8965 -64.8934 -64.8858 -64.8792 -64.8786 -64.8780
   -64.8762 -64.8754 -64.8711 -64.8689 -64.8688 -64.8688 -64.8651 -64.8646
   -64.8455 -64.8435 -64.8425 -64.8423 -64.8386 -64.8370 -64.8366 -64.8363
   -64.8363 -64.8361 -64.8354 -64.8292 -64.8248 -64.8245 -64.8205 -64.7813
   -64.7798 -64.7793 -64.7775 -64.7763 -64.7762 -64.7757 -64.7745 -64.7743
   -13.2595 -10.4960 -10.4931  -6.8705  -6.8627  -4.8800  -3.3079  -3.2513
    -2.9692  -2.7249  -2.5099  -2.5036  -2.3771  -2.3364  -1.9949  -1.9255
    -1.8399  -1.4526  -1.0815  -1.0013  -0.6399  -0.4927  -0.4876  -0.4191
    -0.3733  -0.1482  -0.1406  -0.1073  -0.0771   0.1017   0.1026   0.1113
     0.2622   0.2732   0.2976   0.2983   0.3115   0.3637   0.3696   0.3722
     0.3923   0.4888   0.4917   0.4926   0.4937   0.5384   0.5583   0.6206
     0.6337   0.6422   0.6536   0.6864   0.6870   0.6877   0.7035   0.7036
     0.7374   0.7481   0.7966   0.8021   0.8272   0.8283   0.8585   0.8615
     0.8681   0.9127   0.9184   0.9425   0.9733   0.9956   0.9970   1.0399
     1.0648   1.1099   1.1167   1.1291   1.1434   1.1516   1.1624   1.1832
     1.2336   1.2482   1.2494   1.2531   1.2639   1.2837   1.3005   1.3215
     1.3262   1.3766   1.3787   1.3947   1.4000   1.4138   1.4199   1.4227
     1.4250   1.4747   1.4777   1.4807   1.4834   1.4947   1.5030   1.5200
     1.5232   1.5360   1.5389   1.5668   1.5733   1.5786   1.5899   1.5998
     1.6060   1.6327   1.6741   1.6779   1.6782   1.6849   1.6921   1.7055
     1.7247   1.7328   1.7484   1.7689   1.7719   1.7786   1.7811   1.7843
     1.8072   1.8157   1.8169   1.8228   1.8254   1.8598   1.8672   1.8702
     1.8761   1.8806   1.8865   1.9021   1.9038   1.9230   1.9248   1.9287
     1.9303   1.9445   1.9591   1.9603   1.9932   1.9951   2.0017   2.0084
     2.0132   2.0173   2.0272   2.0286   2.0401   2.0410   2.0469   2.0537
     2.0546   2.0633   2.0686   2.0728   2.0969   2.1041   2.1070   2.1131
     2.1362   2.1373   2.1390   2.1434   2.1466   2.1521   2.1528   2.1556
     2.1564   2.1607   2.2168   2.2178   2.2668   2.2827   2.2851   2.2871
     2.2923   2.2960   2.3102   2.3147   2.3399   2.3406   2.3537   2.3663
     2.3814   2.3841   2.4186   2.4218   2.4264   2.4474   2.4500   2.4536
     2.4559   2.4572   2.4621   2.4634   2.4664   2.4754   2.4941   2.4971
     2.5083   2.5303   2.5412   2.5429   2.5485   2.5584   2.5688   2.5873
     2.5888   2.5996   2.6091   2.6157   2.6225   2.6373   2.6609   2.6615
     2.6716   2.6768   2.6897   2.7023   2.7079   2.7290   2.7428   2.7498
     2.7592   2.7631   2.7702   2.7838   2.7953   2.8035   2.8145   2.8161
     2.8212   2.8252   2.8265   2.8290   2.8390   2.8470   2.8708   2.8888
     2.9029   2.9080   2.9118   2.9276   2.9552   2.9585   2.9719   2.9830
     3.0009   3.0193   3.0234   3.0271   3.0312   3.0358   3.0395   3.0717
     3.0736   3.0781   3.0795   3.0849   3.0933   3.0942   3.0981   3.0998
     3.1052   3.1067   3.1097   3.1113   3.1163   3.1250   3.1281   3.1363
     3.1394   3.1509   3.1519   3.1624   3.1761   3.1784   3.1871   3.1955
     3.1970   3.2127   3.2229   3.2295   3.2542   3.2741   3.2759   3.4443
     3.4757   3.5411   3.5424   3.6331   3.6388   3.7851   3.9583   3.9736
     4.3599   4.4163   4.4446   4.4492   4.4684   4.7207   4.8043   4.8391
     4.8509   4.8646   5.0699   5.2741   5.3088   5.3217   5.7745   5.7899
     5.8420   5.9778   6.0260   6.0382   6.0690   6.2212   6.2279   6.2639
     6.3714   6.6421   6.6682   6.7805   6.9247   6.9697   7.0557   7.1743
     7.1932   7.2356   7.2827   7.5240   7.6967   7.7558   8.0397   8.0982
     8.4579   8.6248   8.6342   8.7367   8.7446   8.8668   9.1367   9.1873
     9.2862   9.3693   9.4091   9.5378   9.5816   9.6050   9.7606   9.7934
     9.8393  10.0205  10.1197  10.1693  10.2056  10.4062  10.4189  10.5361
    10.5660  10.6588  10.8481  10.9018  11.0021  11.0420  11.1049  11.1753
    11.2164  11.3137  11.4145  11.5901  11.6103  11.6520  11.6822  11.7478
    11.8104  11.9061  11.9371  11.9501  12.0187  12.0967  12.1540  12.2399
    12.3124  12.3811  12.4917  12.5188  12.5643  12.6539  12.6999  12.7475
    12.7588  12.8095  12.8677  12.9167  12.9762  13.0998  13.1650  13.2055
    13.3253  13.3696  13.3975  13.4247  13.5323  13.5893  13.6569  13.7074
    13.7518  13.7746

          k =-0.5000-0.5774 0.0000 ( 61343 PWs)   bands (ev):

  -107.6837-107.6704-107.6681-107.6676-107.6653-107.6639-107.6633-107.6631
  -107.6624-107.6619-107.6616-107.6613-107.6606-107.6604-107.6599-107.6597
  -107.6593-107.6585-107.6582-107.6574-107.6567-107.6545-107.6543-107.6515
  -107.6513-107.6493-107.6492-107.6480-107.6470-107.6462-107.6448-107.6445
  -107.6440-107.6437-107.6382-107.6341-107.5521-107.5495-107.5495-107.4880
  -107.4854-107.4854-107.4585-107.4560-107.4560-107.4096-107.4081-107.4075
  -107.4055-107.4044-107.4041-107.4038-107.4028-107.4026 -65.1269 -65.1201
   -65.1173 -65.1168 -65.1156 -65.1155 -65.1145 -65.1132 -65.1123 -65.1101
   -65.1096 -65.1088 -65.1059 -65.1049 -65.1039 -65.1031 -65.1027 -65.1015
   -65.0996 -65.0978 -65.0970 -65.0966 -65.0958 -65.0950 -65.0941 -65.0938
   -65.0924 -65.0913 -65.0897 -65.0887 -65.0867 -65.0845 -65.0839 -65.0832
   -65.0816 -65.0809 -65.0803 -65.0791 -65.0786 -65.0769 -65.0765 -65.0759
   -65.0753 -65.0746 -65.0736 -65.0732 -65.0715 -65.0704 -65.0698 -65.0694
   -65.0689 -65.0685 -65.0683 -65.0673 -65.0671 -65.0666 -65.0659 -65.0648
   -65.0645 -65.0639 -65.0631 -65.0631 -65.0623 -65.0615 -65.0606 -65.0604
   -65.0598 -65.0593 -65.0589 -65.0584 -65.0581 -65.0573 -65.0569 -65.0568
   -65.0565 -65.0556 -65.0552 -65.0547 -65.0542 -65.0535 -65.0533 -65.0529
   -65.0526 -65.0523 -65.0516 -65.0510 -65.0508 -65.0502 -65.0501 -65.0491
   -65.0487 -65.0478 -65.0471 -65.0464 -65.0457 -65.0448 -65.0447 -65.0445
   -65.0431 -65.0417 -65.0413 -65.0404 -65.0380 -65.0369 -65.0357 -65.0352
   -65.0344 -65.0308 -64.9965 -64.9958 -64.9943 -64.9814 -64.9689 -64.9663
   -64.9489 -64.9464 -64.9464 -64.9369 -64.9339 -64.9321 -64.9193 -64.9104
   -64.9082 -64.9002 -64.8965 -64.8934 -64.8858 -64.8792 -64.8786 -64.8780
   -64.8762 -64.8754 -64.8711 -64.8689 -64.8688 -64.8688 -64.8651 -64.8646
   -64.8455 -64.8435 -64.8425 -64.8423 -64.8386 -64.8370 -64.8366 -64.8363
   -64.8363 -64.8361 -64.8354 -64.8292 -64.8248 -64.8245 -64.8205 -64.7813
   -64.7798 -64.7793 -64.7775 -64.7763 -64.7762 -64.7757 -64.7745 -64.7743
   -13.2595 -10.4958 -10.4933  -6.8708  -6.8623  -4.8800  -3.3079  -3.2513
    -2.9692  -2.7249  -2.5099  -2.5036  -2.3771  -2.3364  -1.9949  -1.9255
    -1.8399  -1.4526  -1.0815  -1.0013  -0.6399  -0.4927  -0.4876  -0.4190
    -0.3734  -0.1482  -0.1406  -0.1073  -0.0771   0.1017   0.1026   0.1113
     0.2622   0.2732   0.2976   0.2983   0.3115   0.3637   0.3696   0.3722
     0.3923   0.4888   0.4917   0.4926   0.4937   0.5384   0.5583   0.6206
     0.6337   0.6422   0.6536   0.6864   0.6870   0.6877   0.7035   0.7036
     0.7374   0.7481   0.7966   0.8021   0.8272   0.8283   0.8585   0.8615
     0.8681   0.9127   0.9184   0.9425   0.9733   0.9956   0.9970   1.0399
     1.0648   1.1099   1.1167   1.1291   1.1434   1.1516   1.1624   1.1832
     1.2336   1.2482   1.2494   1.2531   1.2639   1.2837   1.3005   1.3215
     1.3262   1.3766   1.3787   1.3947   1.4000   1.4138   1.4199   1.4227
     1.4250   1.4747   1.4777   1.4807   1.4834   1.4947   1.5030   1.5200
     1.5232   1.5360   1.5388   1.5668   1.5733   1.5786   1.5899   1.5998
     1.6060   1.6327   1.6741   1.6779   1.6783   1.6849   1.6921   1.7055
     1.7247   1.7328   1.7484   1.7689   1.7719   1.7786   1.7811   1.7843
     1.8072   1.8157   1.8169   1.8228   1.8254   1.8597   1.8673   1.8702
     1.8761   1.8806   1.8865   1.9021   1.9038   1.9230   1.9248   1.9287
     1.9303   1.9445   1.9591   1.9603   1.9932   1.9951   2.0017   2.0084
     2.0132   2.0173   2.0272   2.0286   2.0401   2.0410   2.0469   2.0537
     2.0546   2.0633   2.0686   2.0728   2.0969   2.1041   2.1070   2.1131
     2.1362   2.1373   2.1390   2.1434   2.1466   2.1521   2.1528   2.1556
     2.1564   2.1607   2.2168   2.2178   2.2668   2.2827   2.2851   2.2871
     2.2923   2.2960   2.3102   2.3147   2.3399   2.3406   2.3538   2.3663
     2.3814   2.3841   2.4186   2.4218   2.4264   2.4474   2.4500   2.4536
     2.4559   2.4572   2.4621   2.4634   2.4664   2.4754   2.4941   2.4971
     2.5083   2.5303   2.5412   2.5429   2.5485   2.5584   2.5688   2.5873
     2.5888   2.5996   2.6091   2.6157   2.6225   2.6373   2.6609   2.6615
     2.6716   2.6768   2.6897   2.7023   2.7079   2.7290   2.7428   2.7498
     2.7592   2.7631   2.7702   2.7838   2.7953   2.8035   2.8145   2.8161
     2.8212   2.8252   2.8265   2.8290   2.8390   2.8470   2.8708   2.8888
     2.9029   2.9080   2.9118   2.9276   2.9552   2.9586   2.9719   2.9830
     3.0010   3.0193   3.0234   3.0271   3.0312   3.0358   3.0395   3.0717
     3.0736   3.0781   3.0795   3.0849   3.0933   3.0942   3.0981   3.0998
     3.1052   3.1067   3.1097   3.1113   3.1163   3.1250   3.1281   3.1363
     3.1394   3.1509   3.1519   3.1624   3.1761   3.1784   3.1871   3.1955
     3.1970   3.2127   3.2229   3.2295   3.2542   3.2740   3.2759   3.4443
     3.4757   3.5411   3.5424   3.6331   3.6388   3.7851   3.9583   3.9736
     4.3599   4.4163   4.4446   4.4492   4.4684   4.7207   4.8043   4.8391
     4.8509   4.8646   5.0699   5.2741   5.3088   5.3217   5.7745   5.7899
     5.8421   5.9779   6.0260   6.0382   6.0690   6.2212   6.2279   6.2639
     6.3714   6.6422   6.6681   6.7806   6.9247   6.9698   7.0557   7.1743
     7.1932   7.2356   7.2827   7.5240   7.6967   7.7558   8.0397   8.0982
     8.4579   8.6248   8.6342   8.7367   8.7446   8.8669   9.1366   9.1872
     9.2862   9.3693   9.4091   9.5378   9.5816   9.6050   9.7606   9.7934
     9.8393  10.0205  10.1197  10.1693  10.2056  10.4062  10.4189  10.5362
    10.5660  10.6588  10.8481  10.9019  11.0020  11.0420  11.1049  11.1753
    11.2165  11.3137  11.4146  11.5901  11.6103  11.6520  11.6822  11.7478
    11.8104  11.9061  11.9371  11.9501  12.0187  12.0967  12.1540  12.2399
    12.3125  12.3811  12.4917  12.5188  12.5642  12.6539  12.6999  12.7475
    12.7588  12.8095  12.8676  12.9167  12.9762  13.0998  13.1650  13.2055
    13.3253  13.3696  13.3975  13.4247  13.5323  13.5893  13.6569  13.7074
    13.7519  13.7747

     the Fermi energy is     4.7718 ev

!    total energy              =  -21903.73914904 Ry
     Harris-Foulkes estimate   =  -21903.73914910 Ry
     estimated scf accuracy    <          8.1E-09 Ry

     The total energy is the sum of the following terms:

     one-electron contribution = -209485.59287032 Ry
     hartree contribution      =  104950.80382318 Ry
     xc contribution           =   -2143.33031363 Ry
     ewald contribution        =   84774.43378322 Ry
     smearing contrib. (-TS)   =      -0.05357149 Ry

     convergence has been achieved in  36 iterations
 
     init_run     :     70.39s CPU     73.03s WALL (       1 calls)
     electrons    :  17771.13s CPU  18093.17s WALL (       1 calls)

     Called by init_run:
     wfcinit      :     58.96s CPU     60.88s WALL (       1 calls)
     potinit      :      7.79s CPU      7.99s WALL (       1 calls)
     hinit0       :      1.43s CPU      1.45s WALL (       1 calls)

     Called by electrons:
     c_bands      :  16728.52s CPU  16992.15s WALL (      36 calls)
     sum_band     :    725.76s CPU    760.00s WALL (      36 calls)
     v_of_rho     :    257.62s CPU    266.24s WALL (      37 calls)
     newd         :     56.35s CPU     72.25s WALL (      37 calls)
     mix_rho      :      6.70s CPU      6.84s WALL (      36 calls)

     Called by c_bands:
     init_us_2    :     16.21s CPU     16.30s WALL (     730 calls)
     cegterg      :  16587.15s CPU  16845.21s WALL (     360 calls)

     Called by sum_band:
     sum_band:bec :      2.94s CPU      2.95s WALL (     360 calls)
     addusdens    :     37.87s CPU     58.11s WALL (      36 calls)

     Called by *egterg:
     h_psi        :   3418.49s CPU   3500.11s WALL (    2123 calls)
     s_psi        :    377.05s CPU    377.30s WALL (    2123 calls)
     g_psi        :      6.65s CPU      6.67s WALL (    1753 calls)
     cdiaghg      :  10659.44s CPU  10741.25s WALL (    2113 calls)

     Called by h_psi:
     h_psi:pot    :   3408.12s CPU   3472.56s WALL (    2123 calls)
     h_psi:calbec :    422.16s CPU    422.94s WALL (    2123 calls)
     vloc_psi     :   2607.49s CPU   2670.23s WALL (    2123 calls)
     add_vuspsi   :    378.44s CPU    379.37s WALL (    2123 calls)

     General routines
     calbec       :    567.48s CPU    568.39s WALL (    2483 calls)
     fft          :    221.89s CPU    223.59s WALL (    2330 calls)
     ffts         :      0.72s CPU      0.75s WALL (      73 calls)
     fftw         :   2791.95s CPU   2861.28s WALL ( 1451360 calls)
     interpolate  :      3.23s CPU      3.26s WALL (      37 calls)
 
     Parallel routines
     fft_scatt_xy :    296.70s CPU    299.86s WALL ( 1453763 calls)
     fft_scatt_yz :   1786.37s CPU   1840.35s WALL ( 1453763 calls)
 
     PWSCF        :     4h57m CPU       57h 5m WALL

       2h
 
   This run was terminated on:   6:30:17  25Nov2019            

=------------------------------------------------------------------------------=
   JOB DONE.
=------------------------------------------------------------------------------=
