
     Program PWSCF v.6.3MaX starts on 20Nov2019 at 19:11:32 

     This program is part of the open-source Quantum ESPRESSO suite
     for quantum simulation of materials; please cite
         "P. Giannozzi et al., J. Phys.:Condens. Matter 21 395502 (2009);
         "P. Giannozzi et al., J. Phys.:Condens. Matter 29 465901 (2017);
          URL http://www.quantum-espresso.org", 
     in publications or presentations arising from this work. More details at
     http://www.quantum-espresso.org/quote

     Parallel version (MPI), running on    16 processors

     MPI processes distributed on     2 nodes
     R & G space division:  proc/nbgrp/npool/nimage =      16
     Waiting for input...
     Reading input from standard input

     Current dimensions of program PWSCF are:
     Max number of different atomic species (ntypx) = 10
     Max number of k-points (npk) =  40000
     Max angular momentum in pseudopotentials (lmaxx) =  3
     Message from routine iosys:
     minimal I/O required, wf_collect reset to FALSE

     IMPORTANT: XC functional enforced from input :
     Exchange-correlation      = VDW-DF ( 1  4  4  0 1 0)
     Any further DFT definition will be discarded
     Please, verify this is what you really want


     Subspace diagonalization in iterative solution of the eigenvalue problem:
     one sub-group per band group will be used
     scalapack distributed-memory algorithm (size of sub-group:  2*  2 procs)

 
     Parallelization info
     --------------------
     sticks:   dense  smooth     PW     G-vecs:    dense   smooth      PW
     Min         565     189     51               159513    30701    4383
     Max         566     190     52               159526    30710    4400
     Sum        9055    3037    823              2552337   491295   70261
 


     bravais-lattice index     =            0
     lattice parameter (alat)  =      14.8058  a.u.
     unit-cell volume          =   10282.4791 (a.u.)^3
     number of atoms/cell      =           66
     number of atomic types    =            3
     number of electrons       =      1056.00
     number of Kohn-Sham states=          634
     kinetic-energy cutoff     =      50.0000  Ry
     charge density cutoff     =     600.0000  Ry
     convergence threshold     =      1.0E-08
     mixing beta               =       0.3000
     number of iterations used =            8  plain     mixing
     Exchange-correlation      = VDW-DF ( 1  4  4  0 1 0)

     celldm(1)=  14.805786  celldm(2)=   0.000000  celldm(3)=   0.000000
     celldm(4)=   0.000000  celldm(5)=   0.000000  celldm(6)=   0.000000

     crystal axes: (cart. coord. in units of alat)
               a(1) = (   1.000000   0.000000   0.000000 )  
               a(2) = (   0.500000   0.866025   0.000000 )  
               a(3) = (   0.000000   0.000000   3.658245 )  

     reciprocal axes: (cart. coord. in units 2 pi/alat)
               b(1) = (  1.000000 -0.577350  0.000000 )  
               b(2) = (  0.000000  1.154701  0.000000 )  
               b(3) = (  0.000000  0.000000  0.273355 )  


     PseudoPot. # 1 for Cu read from file:
     /deac/thonhauserGrp/chakrad/calculations/atomandmolecule-qe6.2.1-i2012-C6modif/all_pbe_UPF_v1.5/cu_pbe_v1.2.uspp.F.UPF
     MD5 check sum: 6e991ff952a84172a2a52a1c1e996048
     Pseudo is Ultrasoft + core correction, Zval = 19.0
     Generated by new atomic code, or converted to UPF format
     Using radial grid of  867 points,  6 beta functions with: 
                l(1) =   0
                l(2) =   0
                l(3) =   1
                l(4) =   1
                l(5) =   2
                l(6) =   2
     Q(r) pseudized with  8 coefficients,  rinner =    1.150   1.150   1.150
                                                       1.150   1.150

     PseudoPot. # 2 for C  read from file:
     /deac/thonhauserGrp/chakrad/calculations/atomandmolecule-qe6.2.1-i2012-C6modif/all_pbe_UPF_v1.5/c_pbe_v1.2.uspp.F.UPF
     MD5 check sum: d1aef80898a10debaa0f26306b886e00
     Pseudo is Ultrasoft + core correction, Zval =  4.0
     Generated by new atomic code, or converted to UPF format
     Using radial grid of  721 points,  4 beta functions with: 
                l(1) =   0
                l(2) =   0
                l(3) =   1
                l(4) =   1
     Q(r) pseudized with  8 coefficients,  rinner =    1.100   1.100   1.100


     PseudoPot. # 3 for H  read from file:
     /deac/thonhauserGrp/chakrad/calculations/atomandmolecule-qe6.2.1-i2012-C6modif/all_pbe_UPF_v1.5/h_pbe_v1.4.uspp.F.UPF
     MD5 check sum: 761ae9a214b05c3daf00ab9f6b793d6f
     Pseudo is Ultrasoft, Zval =  1.0
     Generated by new atomic code, or converted to UPF format
     Using radial grid of  615 points,  2 beta functions with: 
                l(1) =   0
                l(2) =   0
     Q(r) pseudized with  8 coefficients,  rinner =    0.700

     vdW kernel table read from file vdW_kernel_table
     MD5 check sum: cc9485f6209b1096fbef62427c856dab

     atomic species   valence    mass     pseudopotential
        Cu            19.00     1.00000     Cu( 1.00)
        C              4.00     1.00000     C ( 1.00)
        H              1.00     1.00000     H ( 1.00)

     No symmetry found



   Cartesian axes

     site n.     atom                  positions (alat units)
         1           Cu  tau(   1) = (   0.1666667   0.0962250   0.2552686  )
         2           Cu  tau(   2) = (   0.5000000   0.0962250   0.2552686  )
         3           Cu  tau(   3) = (   0.8333333   0.0962250   0.2552686  )
         4           Cu  tau(   4) = (   0.3333333   0.3849002   0.2552686  )
         5           Cu  tau(   5) = (   0.6666667   0.3849002   0.2552686  )
         6           Cu  tau(   6) = (   1.0000000   0.3849002   0.2552686  )
         7           Cu  tau(   7) = (   0.5000000   0.6735753   0.2552686  )
         8           Cu  tau(   8) = (   0.8333333   0.6735753   0.2552686  )
         9           Cu  tau(   9) = (   1.1666667   0.6735753   0.2552686  )
        10           Cu  tau(  10) = (   0.0000000   0.1924501   0.5274341  )
        11           Cu  tau(  11) = (   0.3333333   0.1924501   0.5274341  )
        12           Cu  tau(  12) = (   0.6666667   0.1924501   0.5274341  )
        13           Cu  tau(  13) = (   0.1666667   0.4811252   0.5274341  )
        14           Cu  tau(  14) = (   0.5000000   0.4811252   0.5274341  )
        15           Cu  tau(  15) = (   0.8333333   0.4811252   0.5274341  )
        16           Cu  tau(  16) = (   0.3333333   0.7698004   0.5274341  )
        17           Cu  tau(  17) = (   0.6666667   0.7698004   0.5274341  )
        18           Cu  tau(  18) = (   1.0000000   0.7698004   0.5274341  )
        19           Cu  tau(  19) = (   0.0000000   0.0000000   0.7995997  )
        20           Cu  tau(  20) = (   0.3333333   0.0000000   0.7995997  )
        21           Cu  tau(  21) = (   0.6666667   0.0000000   0.7995997  )
        22           Cu  tau(  22) = (   0.1666667   0.2886751   0.7995997  )
        23           Cu  tau(  23) = (   0.5000000   0.2886751   0.7995997  )
        24           Cu  tau(  24) = (   0.8333333   0.2886751   0.7995997  )
        25           Cu  tau(  25) = (   0.3333333   0.5773503   0.7995997  )
        26           Cu  tau(  26) = (   0.6666667   0.5773503   0.7995997  )
        27           Cu  tau(  27) = (   1.0000000   0.5773503   0.7995997  )
        28           Cu  tau(  28) = (   0.1666659   0.0962246   1.0691130  )
        29           Cu  tau(  29) = (   0.5000000   0.0962241   1.0691104  )
        30           Cu  tau(  30) = (   0.8333341   0.0962246   1.0691130  )
        31           Cu  tau(  31) = (   0.3333325   0.3849006   1.0691104  )
        32           Cu  tau(  32) = (   0.6666675   0.3849006   1.0691104  )
        33           Cu  tau(  33) = (   1.0000000   0.3849003   1.0691143  )
        34           Cu  tau(  34) = (   0.5000000   0.6735762   1.0691130  )
        35           Cu  tau(  35) = (   0.8333334   0.6735753   1.0691143  )
        36           Cu  tau(  36) = (   1.1666666   0.6735753   1.0691143  )
        37           Cu  tau(  37) = (   0.0000000   0.1924486   1.3387540  )
        38           Cu  tau(  38) = (   0.3333330   0.1924499   1.3387465  )
        39           Cu  tau(  39) = (   0.6666670   0.1924499   1.3387465  )
        40           Cu  tau(  40) = (   0.1666676   0.4811247   1.3387504  )
        41           Cu  tau(  41) = (   0.5000000   0.4811256   1.3387465  )
        42           Cu  tau(  42) = (   0.8333324   0.4811247   1.3387504  )
        43           Cu  tau(  43) = (   0.3333346   0.7698011   1.3387540  )
        44           Cu  tau(  44) = (   0.6666654   0.7698011   1.3387540  )
        45           Cu  tau(  45) = (   1.0000000   0.7698014   1.3387504  )
        46           Cu  tau(  46) = (   0.0000000   0.0000000   1.6083750  )
        47           Cu  tau(  47) = (   0.3333333   0.0000005   1.6083624  )
        48           Cu  tau(  48) = (   0.6666667   0.0000005   1.6083624  )
        49           Cu  tau(  49) = (   0.1666671   0.2886748   1.6083624  )
        50           Cu  tau(  50) = (   0.5000000   0.2886751   1.6083553  )
        51           Cu  tau(  51) = (   0.8333329   0.2886748   1.6083624  )
        52           Cu  tau(  52) = (   0.3333338   0.5773500   1.6083624  )
        53           Cu  tau(  53) = (   0.6666662   0.5773500   1.6083624  )
        54           Cu  tau(  54) = (   1.0000000   0.5773503   1.6083570  )
        55           C   tau(  55) = (   0.6567407   0.3959883   2.0422745  )
        56           C   tau(  56) = (   0.5046394   0.3028152   2.0422745  )
        57           C   tau(  57) = (   0.3478975   0.3879497   2.0422745  )
        58           C   tau(  58) = (   0.3432593   0.5662630   2.0422745  )
        59           C   tau(  59) = (   0.4953606   0.6594361   2.0422745  )
        60           C   tau(  60) = (   0.6521025   0.5743016   2.0422745  )
        61           H   tau(  61) = (   0.7789959   0.3295665   2.0423528  )
        62           H   tau(  62) = (   0.5082587   0.1637263   2.0423528  )
        63           H   tau(  63) = (   0.2292624   0.3152577   2.0423528  )
        64           H   tau(  64) = (   0.2210041   0.6326847   2.0423528  )
        65           H   tau(  65) = (   0.4917413   0.7985249   2.0423528  )
        66           H   tau(  66) = (   0.7707376   0.6469936   2.0423528  )

     number of k points=    10  gaussian smearing, width (Ry)=  0.0200
                       cart. coord. in units 2pi/alat
        k(    1) = (   0.0000000   0.0000000   0.0000000), wk =   0.1250000
        k(    2) = (   0.0000000   0.2886751   0.0000000), wk =   0.2500000
        k(    3) = (   0.0000000  -0.5773503   0.0000000), wk =   0.1250000
        k(    4) = (   0.2500000  -0.7216878   0.0000000), wk =   0.2500000
        k(    5) = (  -0.2500000   0.1443376   0.0000000), wk =   0.2500000
        k(    6) = (   0.2500000   0.1443376   0.0000000), wk =   0.2500000
        k(    7) = (   0.5000000  -0.2886751   0.0000000), wk =   0.1250000
        k(    8) = (  -0.5000000  -0.2886751   0.0000000), wk =   0.1250000
        k(    9) = (  -0.2500000  -0.7216878   0.0000000), wk =   0.2500000
        k(   10) = (  -0.5000000  -0.5773503   0.0000000), wk =   0.2500000

     Dense  grid:  2552337 G-vectors     FFT dimensions: ( 120, 120, 432)

     Smooth grid:   491295 G-vectors     FFT dimensions: (  72,  72, 243)

     Estimated max dynamical RAM per process >       1.14 GB

     Estimated total dynamical RAM >      18.26 GB

     Initial potential from superposition of free atoms
     Check: negative starting charge=   -0.000754

     starting charge 1001.99960, renormalised to 1056.00000

     negative rho (up, down):  7.945E-04 0.000E+00


     %%%%%%%%%%%%%%%%%%%%%%%%%%%%%%%%%%%%%%%%%%%%%%%%%%%%%%%%%%%%%%%%%%%%%%%%
     %                                                                      %
     % You are using vdW-DF, which was implemented by the Thonhauser group. %
     % Please cite the following two papers that made this development      %
     % possible and the two reviews that describe the various versions:     %
     %                                                                      %
     %   T. Thonhauser et al., PRL 115, 136402 (2015).                      %
     %   T. Thonhauser et al., PRB 76, 125112 (2007).                       %
     %   K. Berland et al., Rep. Prog. Phys. 78, 066501 (2015).             %
     %   D.C. Langreth et al., J. Phys.: Condens. Matter 21, 084203 (2009). %
     %                                                                      %
     %                                                                      %
     % If you are calculating the stress with vdW-DF, please also cite:     %
     %                                                                      %
     %   R. Sabatini et al., J. Phys.: Condens. Matter 24, 424209 (2012).   %
     %                                                                      %
     %%%%%%%%%%%%%%%%%%%%%%%%%%%%%%%%%%%%%%%%%%%%%%%%%%%%%%%%%%%%%%%%%%%%%%%%


     Starting wfcs are  732 randomized atomic wfcs

     total cpu time spent up to now is      108.5 secs

     Self-consistent Calculation

     iteration #  1     ecut=    50.00 Ry     beta= 0.30
     Davidson diagonalization with overlap
     ethr =  1.00E-02,  avg # of iterations =  5.7

     negative rho (up, down):  4.899E-04 0.000E+00

     total cpu time spent up to now is     1292.2 secs

     total energy              =  -18957.66262696 Ry
     Harris-Foulkes estimate   =  -22007.20964370 Ry
     estimated scf accuracy    <    6027.52155069 Ry

     iteration #  2     ecut=    50.00 Ry     beta= 0.30
     Davidson diagonalization with overlap
     c_bands:  1 eigenvalues not converged
     ethr =  1.00E-02,  avg # of iterations = 19.0

     negative rho (up, down):  5.219E-04 0.000E+00

     total cpu time spent up to now is     4063.1 secs

     total energy              =  -19242.57257140 Ry
     Harris-Foulkes estimate   =  -38931.68954831 Ry
     estimated scf accuracy    <  281700.74433848 Ry

     iteration #  3     ecut=    50.00 Ry     beta= 0.30
     Davidson diagonalization with overlap
     ethr =  1.00E-02,  avg # of iterations =  7.0

     negative rho (up, down):  6.008E-04 0.000E+00

     total cpu time spent up to now is     5509.4 secs

     total energy              =  -21743.41344585 Ry
     Harris-Foulkes estimate   =  -23406.47518947 Ry
     estimated scf accuracy    <   42771.85429430 Ry

     iteration #  4     ecut=    50.00 Ry     beta= 0.30
     Davidson diagonalization with overlap
     ethr =  1.00E-02,  avg # of iterations =  7.1

     negative rho (up, down):  8.055E-04 0.000E+00

     total cpu time spent up to now is     6571.9 secs

     total energy              =  -21743.20464223 Ry
     Harris-Foulkes estimate   =  -22124.66569920 Ry
     estimated scf accuracy    <   10346.35764614 Ry

     iteration #  5     ecut=    50.00 Ry     beta= 0.30
     Davidson diagonalization with overlap
     ethr =  1.00E-02,  avg # of iterations =  6.0

     negative rho (up, down):  1.084E-04 0.000E+00

     total cpu time spent up to now is     7802.0 secs

     total energy              =  -21704.44651511 Ry
     Harris-Foulkes estimate   =  -22157.87059238 Ry
     estimated scf accuracy    <    9277.47285629 Ry

     iteration #  6     ecut=    50.00 Ry     beta= 0.30
     Davidson diagonalization with overlap
     ethr =  1.00E-02,  avg # of iterations =  5.8

     negative rho (up, down):  1.378E-04 0.000E+00

     total cpu time spent up to now is     8767.1 secs

     total energy              =  -21870.37443490 Ry
     Harris-Foulkes estimate   =  -21977.07427430 Ry
     estimated scf accuracy    <    1084.97803278 Ry

     iteration #  7     ecut=    50.00 Ry     beta= 0.30
     Davidson diagonalization with overlap
     ethr =  1.00E-02,  avg # of iterations =  3.3

     negative rho (up, down):  2.103E-04 0.000E+00

     total cpu time spent up to now is     9136.2 secs

     total energy              =  -21914.54919525 Ry
     Harris-Foulkes estimate   =  -21941.46970522 Ry
     estimated scf accuracy    <    1069.28603995 Ry

     iteration #  8     ecut=    50.00 Ry     beta= 0.30
     Davidson diagonalization with overlap
     ethr =  1.00E-02,  avg # of iterations =  1.7

     negative rho (up, down):  4.061E-04 0.000E+00

     total cpu time spent up to now is     9380.8 secs

     total energy              =  -21911.11105576 Ry
     Harris-Foulkes estimate   =  -21926.95178793 Ry
     estimated scf accuracy    <     130.13546488 Ry

     iteration #  9     ecut=    50.00 Ry     beta= 0.30
     Davidson diagonalization with overlap
     ethr =  1.00E-02,  avg # of iterations =  3.0

     negative rho (up, down):  5.432E-04 0.000E+00

     total cpu time spent up to now is     9698.2 secs

     total energy              =  -21912.44833561 Ry
     Harris-Foulkes estimate   =  -21917.41142207 Ry
     estimated scf accuracy    <     114.86282323 Ry

     iteration # 10     ecut=    50.00 Ry     beta= 0.30
     Davidson diagonalization with overlap
     ethr =  1.00E-02,  avg # of iterations =  1.0

     negative rho (up, down):  2.271E-02 0.000E+00

     total cpu time spent up to now is     9947.1 secs

     total energy              =  -21896.39483469 Ry
     Harris-Foulkes estimate   =  -21913.19760636 Ry
     estimated scf accuracy    <      70.61010675 Ry

     iteration # 11     ecut=    50.00 Ry     beta= 0.30
     Davidson diagonalization with overlap
     ethr =  6.69E-03,  avg # of iterations =  4.6

     negative rho (up, down):  3.732E-07 0.000E+00

     total cpu time spent up to now is    10473.3 secs

     total energy              =  -21881.94174895 Ry
     Harris-Foulkes estimate   =  -21925.28865480 Ry
     estimated scf accuracy    <    1364.73681001 Ry

     iteration # 12     ecut=    50.00 Ry     beta= 0.30
     Davidson diagonalization with overlap
     ethr =  6.69E-03,  avg # of iterations =  3.4

     negative rho (up, down):  1.134E-06 0.000E+00

     total cpu time spent up to now is    10804.1 secs

     total energy              =  -21902.21955909 Ry
     Harris-Foulkes estimate   =  -21906.75495445 Ry
     estimated scf accuracy    <      52.63782611 Ry

     iteration # 13     ecut=    50.00 Ry     beta= 0.30
     Davidson diagonalization with overlap
     ethr =  4.98E-03,  avg # of iterations =  2.3

     negative rho (up, down):  8.231E-07 0.000E+00

     total cpu time spent up to now is    11092.3 secs

     total energy              =  -21903.96312013 Ry
     Harris-Foulkes estimate   =  -21904.44480498 Ry
     estimated scf accuracy    <      14.50288433 Ry

     iteration # 14     ecut=    50.00 Ry     beta= 0.30
     Davidson diagonalization with overlap
     ethr =  1.37E-03,  avg # of iterations =  3.8

     negative rho (up, down):  5.011E-07 0.000E+00

     total cpu time spent up to now is    11438.6 secs

     total energy              =  -21904.07813735 Ry
     Harris-Foulkes estimate   =  -21904.49038953 Ry
     estimated scf accuracy    <       8.72121195 Ry

     iteration # 15     ecut=    50.00 Ry     beta= 0.30
     Davidson diagonalization with overlap
     ethr =  8.26E-04,  avg # of iterations =  4.4

     negative rho (up, down):  6.474E-07 0.000E+00

     total cpu time spent up to now is    11770.7 secs

     total energy              =  -21904.04463953 Ry
     Harris-Foulkes estimate   =  -21904.19423279 Ry
     estimated scf accuracy    <       5.71791148 Ry

     iteration # 16     ecut=    50.00 Ry     beta= 0.30
     Davidson diagonalization with overlap
     ethr =  5.41E-04,  avg # of iterations =  1.9

     negative rho (up, down):  8.175E-07 0.000E+00

     total cpu time spent up to now is    12049.2 secs

     total energy              =  -21903.92381096 Ry
     Harris-Foulkes estimate   =  -21904.09262583 Ry
     estimated scf accuracy    <       5.23796549 Ry

     iteration # 17     ecut=    50.00 Ry     beta= 0.30
     Davidson diagonalization with overlap
     ethr =  4.96E-04,  avg # of iterations =  1.0

     negative rho (up, down):  1.321E-06 0.000E+00

     total cpu time spent up to now is    12308.7 secs

     total energy              =  -21903.88736716 Ry
     Harris-Foulkes estimate   =  -21903.95465165 Ry
     estimated scf accuracy    <       2.55285447 Ry

     iteration # 18     ecut=    50.00 Ry     beta= 0.30
     Davidson diagonalization with overlap
     ethr =  2.42E-04,  avg # of iterations =  6.0

     negative rho (up, down):  3.098E-06 0.000E+00

     total cpu time spent up to now is    12703.3 secs

     total energy              =  -21903.83658259 Ry
     Harris-Foulkes estimate   =  -21903.89643142 Ry
     estimated scf accuracy    <       1.92602632 Ry

     iteration # 19     ecut=    50.00 Ry     beta= 0.30
     Davidson diagonalization with overlap
     ethr =  1.82E-04,  avg # of iterations =  6.9

     negative rho (up, down):  6.037E-06 0.000E+00

     total cpu time spent up to now is    13128.4 secs

     total energy              =  -21903.82316405 Ry
     Harris-Foulkes estimate   =  -21903.84421615 Ry
     estimated scf accuracy    <       0.86891307 Ry

     iteration # 20     ecut=    50.00 Ry     beta= 0.30
     Davidson diagonalization with overlap
     ethr =  8.23E-05,  avg # of iterations =  3.9

     negative rho (up, down):  1.265E-04 0.000E+00

     total cpu time spent up to now is    13472.4 secs

     total energy              =  -21903.73132981 Ry
     Harris-Foulkes estimate   =  -21903.82497469 Ry
     estimated scf accuracy    <       0.84476196 Ry

     iteration # 21     ecut=    50.00 Ry     beta= 0.30
     Davidson diagonalization with overlap
     ethr =  8.00E-05,  avg # of iterations =  7.2

     negative rho (up, down):  2.759E-04 0.000E+00

     total cpu time spent up to now is    13958.6 secs

     total energy              =  -21903.76126036 Ry
     Harris-Foulkes estimate   =  -21903.77460655 Ry
     estimated scf accuracy    <       0.20219948 Ry

     iteration # 22     ecut=    50.00 Ry     beta= 0.30
     Davidson diagonalization with overlap
     ethr =  1.91E-05,  avg # of iterations =  3.9

     negative rho (up, down):  5.674E-04 0.000E+00

     total cpu time spent up to now is    14280.1 secs

     total energy              =  -21903.76663526 Ry
     Harris-Foulkes estimate   =  -21903.76783169 Ry
     estimated scf accuracy    <       0.01039059 Ry

     iteration # 23     ecut=    50.00 Ry     beta= 0.30
     Davidson diagonalization with overlap
     ethr =  9.84E-07,  avg # of iterations =  7.6

     negative rho (up, down):  7.947E-04 0.000E+00

     total cpu time spent up to now is    14788.3 secs

     total energy              =  -21903.76724984 Ry
     Harris-Foulkes estimate   =  -21903.76781370 Ry
     estimated scf accuracy    <       0.00556146 Ry

     iteration # 24     ecut=    50.00 Ry     beta= 0.30
     Davidson diagonalization with overlap
     ethr =  5.27E-07,  avg # of iterations =  3.6

     negative rho (up, down):  1.048E-03 0.000E+00

     total cpu time spent up to now is    15117.3 secs

     total energy              =  -21903.76773771 Ry
     Harris-Foulkes estimate   =  -21903.76767956 Ry
     estimated scf accuracy    <       0.00054778 Ry

     iteration # 25     ecut=    50.00 Ry     beta= 0.30
     Davidson diagonalization with overlap
     ethr =  5.19E-08,  avg # of iterations =  5.2

     negative rho (up, down):  1.357E-03 0.000E+00

     total cpu time spent up to now is    15498.5 secs

     total energy              =  -21903.76783855 Ry
     Harris-Foulkes estimate   =  -21903.76779156 Ry
     estimated scf accuracy    <       0.00017216 Ry

     iteration # 26     ecut=    50.00 Ry     beta= 0.30
     Davidson diagonalization with overlap
     ethr =  1.63E-08,  avg # of iterations =  5.8

     negative rho (up, down):  1.659E-03 0.000E+00

     total cpu time spent up to now is    15893.8 secs

     total energy              =  -21903.76787610 Ry
     Harris-Foulkes estimate   =  -21903.76787153 Ry
     estimated scf accuracy    <       0.00022374 Ry

     iteration # 27     ecut=    50.00 Ry     beta= 0.30
     Davidson diagonalization with overlap
     ethr =  1.63E-08,  avg # of iterations =  3.8

     negative rho (up, down):  2.059E-03 0.000E+00

     total cpu time spent up to now is    16212.3 secs

     total energy              =  -21903.76790111 Ry
     Harris-Foulkes estimate   =  -21903.76789280 Ry
     estimated scf accuracy    <       0.00003228 Ry

     iteration # 28     ecut=    50.00 Ry     beta= 0.30
     Davidson diagonalization with overlap
     ethr =  3.06E-09,  avg # of iterations =  5.5

     negative rho (up, down):  2.299E-03 0.000E+00

     total cpu time spent up to now is    16587.0 secs

     total energy              =  -21903.76790283 Ry
     Harris-Foulkes estimate   =  -21903.76790508 Ry
     estimated scf accuracy    <       0.00001668 Ry

     iteration # 29     ecut=    50.00 Ry     beta= 0.30
     Davidson diagonalization with overlap
     ethr =  1.58E-09,  avg # of iterations =  2.3

     negative rho (up, down):  2.288E-03 0.000E+00

     total cpu time spent up to now is    16861.9 secs

     total energy              =  -21903.76790377 Ry
     Harris-Foulkes estimate   =  -21903.76790533 Ry
     estimated scf accuracy    <       0.00002121 Ry

     iteration # 30     ecut=    50.00 Ry     beta= 0.30
     Davidson diagonalization with overlap
     ethr =  1.58E-09,  avg # of iterations =  1.0

     negative rho (up, down):  2.392E-03 0.000E+00

     total cpu time spent up to now is    17102.7 secs

     total energy              =  -21903.76790415 Ry
     Harris-Foulkes estimate   =  -21903.76790516 Ry
     estimated scf accuracy    <       0.00000806 Ry

     iteration # 31     ecut=    50.00 Ry     beta= 0.30
     Davidson diagonalization with overlap
     ethr =  7.63E-10,  avg # of iterations =  2.0

     negative rho (up, down):  2.410E-03 0.000E+00

     total cpu time spent up to now is    17373.2 secs

     total energy              =  -21903.76790430 Ry
     Harris-Foulkes estimate   =  -21903.76790449 Ry
     estimated scf accuracy    <       0.00000056 Ry

     iteration # 32     ecut=    50.00 Ry     beta= 0.30
     Davidson diagonalization with overlap
     ethr =  5.28E-11,  avg # of iterations =  2.0

     negative rho (up, down):  2.424E-03 0.000E+00

     total cpu time spent up to now is    17644.9 secs

     total energy              =  -21903.76790419 Ry
     Harris-Foulkes estimate   =  -21903.76790441 Ry
     estimated scf accuracy    <       0.00000159 Ry

     iteration # 33     ecut=    50.00 Ry     beta= 0.30
     Davidson diagonalization with overlap
     ethr =  5.28E-11,  avg # of iterations =  2.0

     negative rho (up, down):  2.442E-03 0.000E+00

     total cpu time spent up to now is    17898.0 secs

     total energy              =  -21903.76790410 Ry
     Harris-Foulkes estimate   =  -21903.76790429 Ry
     estimated scf accuracy    <       0.00000066 Ry

     iteration # 34     ecut=    50.00 Ry     beta= 0.30
     Davidson diagonalization with overlap
     ethr =  5.28E-11,  avg # of iterations =  2.0

     negative rho (up, down):  2.449E-03 0.000E+00

     total cpu time spent up to now is    18150.8 secs

     total energy              =  -21903.76790406 Ry
     Harris-Foulkes estimate   =  -21903.76790413 Ry
     estimated scf accuracy    <       0.00000004 Ry

     iteration # 35     ecut=    50.00 Ry     beta= 0.30
     Davidson diagonalization with overlap
     ethr =  3.89E-12,  avg # of iterations =  2.0

     negative rho (up, down):  2.454E-03 0.000E+00

     total cpu time spent up to now is    18428.0 secs

     total energy              =  -21903.76790403 Ry
     Harris-Foulkes estimate   =  -21903.76790407 Ry
     estimated scf accuracy    <       0.00000002 Ry

     iteration # 36     ecut=    50.00 Ry     beta= 0.30
     Davidson diagonalization with overlap
     ethr =  1.49E-12,  avg # of iterations =  2.0

     negative rho (up, down):  2.457E-03 0.000E+00

     total cpu time spent up to now is    18715.0 secs

     total energy              =  -21903.76790400 Ry
     Harris-Foulkes estimate   =  -21903.76790403 Ry
     estimated scf accuracy    <       0.00000002 Ry

     iteration # 37     ecut=    50.00 Ry     beta= 0.30
     Davidson diagonalization with overlap
     ethr =  1.49E-12,  avg # of iterations =  2.0

     negative rho (up, down):  2.459E-03 0.000E+00

     total cpu time spent up to now is    18951.6 secs

     total energy              =  -21903.76790398 Ry
     Harris-Foulkes estimate   =  -21903.76790400 Ry
     estimated scf accuracy    <       0.00000001 Ry

     iteration # 38     ecut=    50.00 Ry     beta= 0.30
     Davidson diagonalization with overlap
     ethr =  1.06E-12,  avg # of iterations =  2.0

     negative rho (up, down):  2.463E-03 0.000E+00

     total cpu time spent up to now is    19198.8 secs

     End of self-consistent calculation

          k = 0.0000 0.0000 0.0000 ( 61453 PWs)   bands (ev):

  -107.8220-107.8187-107.8151-107.8151-107.8150-107.8145-107.8145-107.8141
  -107.8130-107.8115-107.8115-107.8113-107.8113-107.8106-107.8106-107.8102
  -107.8099-107.8098-107.8058-107.8058-107.8057-107.8046-107.8046-107.8042
  -107.8033-107.8021-107.8021-107.8006-107.7969-107.7958-107.7958-107.7957
  -107.7957-107.7948-107.7934-107.7925-107.5923-107.5881-107.5881-107.5881
  -107.5867-107.5867-107.5845-107.5824-107.5824-107.5616-107.5567-107.5567
  -107.5567-107.5564-107.5564-107.5564-107.5539-107.5539 -65.2759 -65.2634
   -65.2623 -65.2623 -65.2618 -65.2618 -65.2611 -65.2551 -65.2549 -65.2549
   -65.2542 -65.2542 -65.2536 -65.2536 -65.2535 -65.2506 -65.2504 -65.2504
   -65.2501 -65.2484 -65.2433 -65.2433 -65.2427 -65.2417 -65.2414 -65.2414
   -65.2400 -65.2399 -65.2399 -65.2395 -65.2395 -65.2386 -65.2386 -65.2386
   -65.2362 -65.2362 -65.2361 -65.2357 -65.2306 -65.2306 -65.2305 -65.2298
   -65.2296 -65.2296 -65.2290 -65.2290 -65.2254 -65.2254 -65.2249 -65.2226
   -65.2225 -65.2221 -65.2221 -65.2221 -65.2221 -65.2217 -65.2186 -65.2152
   -65.2152 -65.2142 -65.2142 -65.2139 -65.2135 -65.2135 -65.2132 -65.2123
   -65.2123 -65.2123 -65.2111 -65.2105 -65.2105 -65.2104 -65.2104 -65.2076
   -65.2076 -65.2043 -65.2040 -65.2040 -65.2039 -65.2038 -65.2038 -65.2032
   -65.2032 -65.2028 -65.2024 -65.2023 -65.2023 -65.1999 -65.1976 -65.1976
   -65.1972 -65.1966 -65.1966 -65.1966 -65.1965 -65.1965 -65.1908 -65.1908
   -65.1895 -65.1895 -65.1893 -65.1888 -65.1886 -65.1886 -65.1850 -65.1850
   -65.1782 -65.1782 -65.0445 -65.0445 -65.0443 -65.0430 -65.0430 -65.0427
   -65.0406 -65.0398 -65.0398 -65.0380 -65.0161 -65.0159 -65.0159 -65.0159
   -65.0157 -65.0157 -65.0133 -65.0133 -65.0130 -65.0127 -65.0098 -65.0085
   -65.0084 -65.0068 -65.0068 -65.0064 -64.9953 -64.9953 -64.9806 -64.9806
   -64.9805 -64.9805 -64.9805 -64.9802 -64.9694 -64.9683 -64.9683 -64.9656
   -64.9656 -64.9656 -64.9643 -64.9643 -64.9612 -64.9592 -64.9592 -64.9336
   -64.9290 -64.9290 -64.9290 -64.9286 -64.9286 -64.9286 -64.9264 -64.9264
   -12.7151  -9.9677  -9.9674  -6.3734  -6.3728  -4.4480  -4.0866  -3.4676
    -2.8485  -2.5204  -2.4614  -1.8093  -1.8092  -1.4037  -1.1220  -1.1210
    -1.1210  -1.1209  -1.1209  -1.1208  -0.7425  -0.7176  -0.7176  -0.7171
    -0.7171  -0.7171  -0.6665  -0.4464  -0.2202  -0.2184  -0.2184  -0.2174
    -0.2173  -0.2171  -0.2018   0.1251   0.1254   0.2316   0.2316   0.2338
     0.2355   0.2355   0.2379   0.5814   0.5814   0.5837   0.5841   0.5841
     0.5863   0.7093   0.7093   0.7098   0.7100   0.7100   0.7107   0.7587
     0.7587   0.7593   0.7593   0.7593   0.7600   0.7881   0.7881   0.8021
     0.8021   0.8123   0.8123   0.9081   0.9081   0.9168   0.9168   0.9349
     0.9349   0.9358   0.9367   0.9367   0.9377   0.9471   0.9471   0.9481
     0.9481   0.9947   0.9947   1.0402   1.0402   1.1439   1.1439   1.1474
     1.1474   1.1492   1.1495   1.1495   1.1509   1.1848   1.1848   1.3811
     1.3811   1.3858   1.3858   1.3859   1.3875   1.5171   1.5171   1.5255
     1.5255   1.5355   1.5355   1.5393   1.5393   1.5398   1.5406   1.5795
     1.5818   1.5819   1.5983   1.6496   1.6496   1.6529   1.6529   1.6532
     1.6535   1.6655   1.6655   1.6922   1.6922   1.7222   1.7287   1.7287
     1.7312   1.7312   1.7387   1.7387   1.7389   1.7399   1.7785   1.7785
     1.7872   1.7872   1.7907   1.7909   1.7909   1.7914   1.8107   1.8108
     1.8108   1.8115   1.8116   1.8116   1.8175   1.8175   1.8326   1.8818
     1.8818   1.9275   1.9275   1.9384   1.9389   1.9389   1.9415   1.9505
     1.9520   1.9566   1.9566   1.9776   1.9776   1.9884   1.9885   2.0116
     2.0116   2.0122   2.0122   2.0124   2.0129   2.0133   2.0134   2.0557
     2.0557   2.2020   2.2020   2.2022   2.2059   2.2518   2.2518   2.2702
     2.2703   2.2703   2.2709   2.2710   2.2710   2.3312   2.3312   2.3330
     2.3347   2.3476   2.3476   2.3512   2.3512   2.3734   2.3735   2.3810
     2.3810   2.4189   2.4395   2.4395   2.4684   2.4684   2.4726   2.4726
     2.4736   2.4774   2.4914   2.4914   2.5008   2.5010   2.5010   2.5012
     2.5012   2.5014   2.5025   2.5025   2.5074   2.5074   2.5754   2.5754
     2.6405   2.6407   2.6407   2.6410   2.6412   2.6412   2.6965   2.6972
     2.6972   2.6990   2.7004   2.7004   2.7004   2.7009   2.7009   2.7009
     2.7063   2.7063   2.7624   2.7624   2.7686   2.7687   2.7687   2.7693
     2.7694   2.7694   2.7803   2.7804   2.7804   2.7808   2.7809   2.7809
     2.8042   2.8043   2.8043   2.8047   2.8048   2.8048   2.8317   2.8317
     2.8466   2.8466   2.8699   2.8710   2.8710   2.8714   2.8714   2.8719
     2.8782   2.8783   2.8990   2.8993   2.8993   2.8996   2.8996   2.8999
     2.9269   2.9269   2.9301   2.9301   2.9325   2.9325   2.9522   2.9524
     2.9655   2.9656   2.9656   2.9664   2.9664   2.9665   2.9909   2.9909
     2.9913   2.9942   2.9942   2.9981   3.0283   3.0283   3.0440   3.0440
     3.0440   3.0448   3.0449   3.0449   3.8723   3.9707   3.9707   3.9729
     3.9962   4.0121   4.0121   4.4702   5.3940   5.3941   5.4040   5.4285
     5.4553   5.4553   6.9929   6.9930   7.0419   7.1701   7.2698   7.2698
     7.2880   7.4535   7.4536   7.8384   7.8384   7.8384   7.8386   7.8545
     7.8545   8.1782   8.2307   8.2307   8.2519   8.2519   8.4775   8.6447
     8.6466   8.7903   8.8805   8.8805   8.9018   8.9027   9.0144   9.0472
     9.0472   9.2712   9.4773   9.5232   9.5232   9.5296   9.5296   9.8204
     9.8205   9.8746   9.9060   9.9081  10.5589  10.5881  10.6723  10.6723
    10.6993  10.6993  10.8539  10.8539  10.8970  10.8970  10.9448  11.0887
    11.0888  11.1053  11.2509  11.3226  11.3226  11.3482  11.3482  11.3677
    11.4824  11.6579  11.6580  11.8005  11.8288  11.8288  11.8695  11.8695
    11.9101  11.9152  11.9152  11.9529  11.9529  12.0315  12.1246  12.2285
    12.2285  12.2527  12.3134  12.3484  12.3484  12.4704  12.4704  12.7321
    12.8896  12.8908  12.8909  13.0065  13.0066  13.0163  13.0324  13.0429
    13.1181  13.1302

          k = 0.0000 0.2887 0.0000 ( 61417 PWs)   bands (ev):

  -107.8215-107.8188-107.8165-107.8157-107.8150-107.8142-107.8136-107.8133
  -107.8127-107.8120-107.8119-107.8112-107.8111-107.8109-107.8106-107.8098
  -107.8098-107.8096-107.8069-107.8060-107.8057-107.8044-107.8043-107.8036
  -107.8032-107.8022-107.8022-107.8002-107.7976-107.7964-107.7963-107.7952
  -107.7950-107.7943-107.7936-107.7926-107.5919-107.5893-107.5883-107.5875
  -107.5867-107.5865-107.5843-107.5825-107.5824-107.5612-107.5582-107.5572
  -107.5571-107.5557-107.5557-107.5552-107.5542-107.5542 -65.2744 -65.2655
   -65.2647 -65.2636 -65.2627 -65.2624 -65.2618 -65.2614 -65.2588 -65.2587
   -65.2576 -65.2575 -65.2560 -65.2558 -65.2513 -65.2501 -65.2499 -65.2481
   -65.2473 -65.2464 -65.2460 -65.2459 -65.2457 -65.2454 -65.2436 -65.2436
   -65.2430 -65.2425 -65.2387 -65.2387 -65.2360 -65.2356 -65.2355 -65.2344
   -65.2342 -65.2335 -65.2330 -65.2327 -65.2308 -65.2307 -65.2284 -65.2284
   -65.2254 -65.2250 -65.2247 -65.2244 -65.2236 -65.2235 -65.2225 -65.2218
   -65.2211 -65.2203 -65.2197 -65.2189 -65.2186 -65.2182 -65.2175 -65.2170
   -65.2166 -65.2152 -65.2148 -65.2147 -65.2143 -65.2143 -65.2141 -65.2118
   -65.2116 -65.2097 -65.2096 -65.2088 -65.2087 -65.2075 -65.2072 -65.2070
   -65.2065 -65.2061 -65.2061 -65.2057 -65.2054 -65.2053 -65.2053 -65.2038
   -65.2036 -65.2022 -65.2019 -65.2012 -65.2006 -65.2002 -65.2000 -65.1997
   -65.1996 -65.1992 -65.1979 -65.1963 -65.1962 -65.1943 -65.1930 -65.1929
   -65.1929 -65.1919 -65.1916 -65.1893 -65.1893 -65.1886 -65.1861 -65.1854
   -65.1823 -65.1792 -65.0549 -65.0497 -65.0493 -65.0477 -65.0472 -65.0361
   -65.0358 -65.0304 -65.0301 -65.0274 -65.0269 -65.0218 -65.0217 -65.0207
   -65.0205 -65.0126 -65.0118 -65.0106 -65.0087 -65.0086 -65.0075 -65.0074
   -65.0036 -65.0030 -65.0028 -65.0000 -64.9995 -64.9964 -64.9846 -64.9845
   -64.9835 -64.9805 -64.9803 -64.9764 -64.9726 -64.9694 -64.9691 -64.9667
   -64.9657 -64.9651 -64.9642 -64.9642 -64.9612 -64.9593 -64.9592 -64.9332
   -64.9304 -64.9294 -64.9294 -64.9280 -64.9280 -64.9276 -64.9266 -64.9266
   -12.7143  -9.9712  -9.9682  -6.3761  -6.3687  -4.4216  -3.8732  -3.2587
    -2.8211  -2.4650  -2.3202  -2.2703  -1.8594  -1.8167  -1.7217  -1.5594
    -1.5588  -1.2193  -1.0779  -1.0756  -0.9292  -0.6447  -0.5028  -0.5024
    -0.4138  -0.4077  -0.3144  -0.2915  -0.2172  -0.2167  -0.0819  -0.0498
    -0.0439   0.0536   0.0570   0.0580   0.0862   0.1268   0.2323   0.2381
     0.2637   0.3294   0.3296   0.5123   0.5187   0.5494   0.5494   0.5732
     0.5855   0.5855   0.6082   0.6085   0.6536   0.6564   0.6578   0.6587
     0.6704   0.6707   0.7113   0.7114   0.7475   0.7475   0.7766   0.7767
     0.7825   0.8276   0.8284   0.8425   0.8425   0.8641   0.8645   0.8769
     0.8770   0.9088   0.9091   0.9521   1.0202   1.0202   1.0248   1.0501
     1.0501   1.0633   1.0641   1.0985   1.0988   1.1348   1.1372   1.1372
     1.2014   1.2014   1.2232   1.2264   1.2472   1.2474   1.2923   1.2928
     1.3085   1.3295   1.3335   1.3345   1.3620   1.4050   1.4057   1.4230
     1.4233   1.4317   1.4638   1.4685   1.4811   1.5035   1.5038   1.5123
     1.5426   1.5430   1.5711   1.6082   1.6237   1.6330   1.6330   1.6444
     1.6453   1.6464   1.6775   1.6838   1.6909   1.7023   1.7026   1.7183
     1.7212   1.7219   1.7405   1.7444   1.7507   1.7622   1.7742   1.7780
     1.7793   1.7866   1.7878   1.7944   1.7976   1.8135   1.8153   1.8192
     1.8192   1.8230   1.8425   1.8476   1.8544   1.8578   1.8674   1.8798
     1.8811   1.8817   1.8822   1.9195   1.9208   1.9254   1.9264   1.9381
     1.9406   1.9433   1.9569   1.9623   1.9627   1.9646   1.9763   1.9869
     1.9944   2.0107   2.0347   2.0364   2.0487   2.0491   2.0612   2.0627
     2.0628   2.0743   2.0780   2.1031   2.1031   2.1168   2.1225   2.1473
     2.1573   2.1648   2.1898   2.1957   2.2010   2.2013   2.2239   2.2256
     2.2628   2.2800   2.3059   2.3076   2.3143   2.3158   2.3274   2.3282
     2.3564   2.3592   2.3691   2.3697   2.3737   2.3757   2.4064   2.4067
     2.4370   2.4420   2.4461   2.4470   2.4546   2.4799   2.4834   2.4859
     2.4881   2.4917   2.5211   2.5321   2.5363   2.5421   2.5428   2.5599
     2.5643   2.5646   2.5820   2.5851   2.5856   2.5857   2.5956   2.5992
     2.6211   2.6303   2.6703   2.6751   2.6794   2.7071   2.7087   2.7176
     2.7204   2.7212   2.7218   2.7256   2.7441   2.7446   2.7459   2.7588
     2.7624   2.7632   2.7671   2.7763   2.8004   2.8133   2.8133   2.8167
     2.8268   2.8275   2.8465   2.8480   2.8546   2.8562   2.9014   2.9016
     2.9016   2.9084   2.9084   2.9148   2.9244   2.9256   2.9310   2.9350
     2.9364   2.9365   2.9428   2.9431   2.9465   2.9519   2.9601   2.9608
     2.9785   2.9905   2.9906   2.9914   2.9934   2.9980   2.9994   2.9997
     3.0218   3.0304   3.0403   3.0427   3.0442   3.0472   3.0602   3.0612
     3.1275   3.1510   3.1948   3.2827   3.3072   3.3074   3.3870   3.4676
     3.4678   3.7210   3.7710   3.7734   3.7777   3.7970   4.0851   4.2901
     4.4702   4.7458   4.7481   4.9674   5.0526   5.0645   5.0974   5.8348
     5.8351   6.0521   6.1897   6.2109   6.2318   6.2325   6.4735   6.7080
     6.7759   6.8966   6.9132   7.2144   7.2638   7.3842   7.4770   7.7324
     7.7656   7.7770   7.9522   8.0237   8.2252   8.2347   8.2784   8.3912
     8.3941   8.7016   8.7041   8.7597   8.8467   8.9448   9.2511   9.2538
     9.3169   9.4100   9.5708   9.6470   9.7776   9.8269   9.9181   9.9516
     9.9962  10.0032  10.0474  10.1225  10.2598  10.4016  10.4046  10.4604
    10.5192  10.5512  10.6102  10.6516  10.7204  10.7696  10.7732  10.8521
    10.9415  10.9510  10.9645  11.0297  11.0959  11.2367  11.4394  11.4540
    11.4881  11.5168  11.5752  11.5847  11.6822  11.7702  11.9226  11.9690
    12.0385  12.1674  12.2269  12.3093  12.3414  12.4190  12.4771  12.5032
    12.5397  12.5775  12.6384  12.6893  12.8262  12.8334  12.8523  12.8749
    12.9537  13.0170  13.1205  13.1376  13.1895  13.2326  13.2463  13.3598
    13.3943  13.4544

          k = 0.0000-0.5774 0.0000 ( 61408 PWs)   bands (ev):

  -107.8209-107.8190-107.8173-107.8159-107.8151-107.8139-107.8132-107.8127
  -107.8124-107.8121-107.8118-107.8118-107.8115-107.8109-107.8102-107.8100
  -107.8096-107.8088-107.8081-107.8062-107.8059-107.8040-107.8039-107.8035
  -107.8033-107.8024-107.8022-107.7995-107.7986-107.7966-107.7965-107.7949
  -107.7942-107.7942-107.7940-107.7927-107.5912-107.5904-107.5884-107.5875
  -107.5865-107.5863-107.5842-107.5825-107.5824-107.5600-107.5599-107.5574
  -107.5574-107.5550-107.5549-107.5548-107.5547-107.5546 -65.2709 -65.2701
   -65.2678 -65.2665 -65.2629 -65.2626 -65.2615 -65.2613 -65.2605 -65.2603
   -65.2597 -65.2595 -65.2593 -65.2587 -65.2553 -65.2492 -65.2486 -65.2485
   -65.2481 -65.2479 -65.2475 -65.2474 -65.2468 -65.2465 -65.2443 -65.2441
   -65.2436 -65.2431 -65.2369 -65.2365 -65.2357 -65.2354 -65.2349 -65.2344
   -65.2333 -65.2298 -65.2297 -65.2275 -65.2262 -65.2261 -65.2260 -65.2257
   -65.2254 -65.2243 -65.2231 -65.2231 -65.2225 -65.2219 -65.2218 -65.2214
   -65.2188 -65.2188 -65.2186 -65.2182 -65.2180 -65.2177 -65.2170 -65.2160
   -65.2136 -65.2130 -65.2126 -65.2122 -65.2121 -65.2116 -65.2115 -65.2114
   -65.2114 -65.2112 -65.2110 -65.2100 -65.2084 -65.2083 -65.2078 -65.2073
   -65.2073 -65.2068 -65.2053 -65.2048 -65.2043 -65.2040 -65.2040 -65.2035
   -65.2028 -65.2027 -65.2021 -65.2013 -65.2010 -65.2008 -65.2006 -65.2003
   -65.2003 -65.1996 -65.1995 -65.1970 -65.1968 -65.1966 -65.1964 -65.1955
   -65.1942 -65.1931 -65.1927 -65.1926 -65.1907 -65.1904 -65.1892 -65.1887
   -65.1821 -65.1815 -65.0590 -65.0520 -65.0516 -65.0503 -65.0497 -65.0325
   -65.0321 -65.0316 -65.0238 -65.0237 -65.0236 -65.0235 -65.0211 -65.0204
   -65.0194 -65.0189 -65.0123 -65.0118 -65.0114 -65.0085 -65.0073 -65.0051
   -65.0049 -65.0005 -64.9984 -64.9927 -64.9926 -64.9926 -64.9924 -64.9846
   -64.9843 -64.9841 -64.9815 -64.9813 -64.9725 -64.9723 -64.9684 -64.9676
   -64.9658 -64.9650 -64.9641 -64.9641 -64.9611 -64.9593 -64.9592 -64.9321
   -64.9319 -64.9296 -64.9296 -64.9274 -64.9273 -64.9272 -64.9270 -64.9270
   -12.7135  -9.9747  -9.9689  -6.3794  -6.3641  -4.3944  -3.2478  -3.2476
    -2.7933  -2.6513  -2.6504  -2.4688  -1.9140  -1.8245  -1.7505  -1.7333
    -1.7150  -1.7141  -1.2081  -1.2053  -0.7910  -0.6799  -0.5481  -0.4848
    -0.4550  -0.1022   0.0409   0.0789   0.0817   0.1013   0.1015   0.1017
     0.1018   0.1041   0.1274   0.1890   0.2590   0.2662   0.2700   0.2763
     0.2808   0.2997   0.2998   0.3000   0.3001   0.3551   0.3553   0.3556
     0.3556   0.4830   0.5192   0.5193   0.5202   0.5203   0.5564   0.6003
     0.6978   0.6979   0.6981   0.6982   0.7103   0.7330   0.7359   0.7502
     0.7502   0.7512   0.7514   0.8716   0.8717   0.8720   0.8721   0.8941
     0.8951   0.9811   0.9928   0.9929   0.9940   0.9942   1.0320   1.0322
     1.0760   1.0761   1.1442   1.1445   1.1456   1.1458   1.2072   1.2074
     1.2374   1.2384   1.2552   1.2556   1.2570   1.2575   1.2765   1.2766
     1.3062   1.3134   1.3613   1.3765   1.3776   1.4044   1.4054   1.4211
     1.4251   1.4335   1.4337   1.4344   1.4344   1.4896   1.4921   1.4942
     1.4947   1.4954   1.4957   1.5448   1.5504   1.5667   1.5691   1.5705
     1.5706   1.5789   1.5796   1.5796   1.6158   1.6373   1.6634   1.6674
     1.6682   1.6746   1.6833   1.7178   1.7185   1.7188   1.7190   1.7191
     1.7263   1.7336   1.7826   1.7832   1.7892   1.7912   1.8026   1.8032
     1.8362   1.8368   1.8377   1.8382   1.8553   1.8617   1.8625   1.8647
     1.8651   1.8858   1.8874   1.8917   1.8922   1.9230   1.9234   1.9457
     1.9559   1.9565   1.9618   1.9900   2.0158   2.0170   2.0240   2.0246
     2.0272   2.0274   2.0327   2.0364   2.0368   2.0448   2.0452   2.0565
     2.0635   2.0700   2.0729   2.0779   2.0780   2.0877   2.0968   2.1504
     2.1581   2.1586   2.1740   2.2396   2.2397   2.2404   2.2405   2.2432
     2.2451   2.2456   2.2545   2.2550   2.2588   2.2728   2.2815   2.3035
     2.3176   2.3185   2.3187   2.3272   2.3399   2.3401   2.3403   2.3410
     2.3414   2.3483   2.3654   2.3659   2.3704   2.3757   2.3762   2.4555
     2.4763   2.4962   2.4966   2.5239   2.5241   2.5248   2.5255   2.5560
     2.5564   2.5612   2.5744   2.5948   2.5964   2.6001   2.6008   2.6115
     2.6223   2.6372   2.6376   2.6379   2.6379   2.6390   2.6510   2.6700
     2.6708   2.6728   2.6767   2.7261   2.7261   2.7275   2.7279   2.7386
     2.7395   2.7624   2.7631   2.7914   2.7921   2.7986   2.8003   2.8248
     2.8248   2.8482   2.8518   2.8577   2.8720   2.9107   2.9125   2.9262
     2.9283   2.9326   2.9333   2.9502   2.9622   2.9623   2.9657   2.9662
     2.9683   2.9700   2.9868   2.9904   2.9905   2.9907   2.9911   3.0080
     3.0086   3.0090   3.0204   3.0227   3.0380   3.0385   3.0555   3.0557
     3.0563   3.0590   3.0645   3.0780   3.0946   3.1074   3.1077   3.1088
     3.1090   3.2060   3.2306   3.7413   3.7651   3.7693   3.7786   4.2728
     4.3191   4.3193   4.3196   4.3197   4.5871   4.5883   4.5892   4.5896
     4.9283   4.9396   4.9643   5.0646   5.1078   5.1380   5.1451   5.1473
     5.1519   5.4310   5.7693   6.0249   6.0454   6.0736   6.0983   6.1252
     6.1287   6.1408   6.1871   6.5771   6.6488   7.1387   7.2344   7.4361
     7.4372   7.4400   7.6246   7.9129   7.9799   8.1790   8.2996   8.4209
     8.5597   8.5652   8.5655   8.5917   8.9008   8.9370   8.9449   9.1951
     9.2111   9.2134   9.2259   9.2464   9.4572   9.6097   9.6470   9.7765
     9.8129   9.8784   9.8910   9.9071   9.9200  10.2789  10.3122  10.3714
    10.4125  10.4360  10.5026  10.5130  10.5363  10.8080  10.8560  11.0223
    11.0705  11.1623  11.2606  11.2787  11.3579  11.3749  11.4512  11.4875
    11.4954  11.5840  11.7197  12.0343  12.1230  12.1375  12.2398  12.2751
    12.2844  12.3163  12.4343  12.5408  12.7531  12.7769  12.8974  12.9608
    12.9849  13.0392  13.0464  13.1130  13.1241  13.2129  13.2323  13.2497
    13.2660  13.2937  13.2982  13.3471  13.5083  13.6197  13.6931  13.6942
    13.7578  13.8468

          k = 0.2500-0.7217 0.0000 ( 61343 PWs)   bands (ev):

  -107.8210-107.8188-107.8174-107.8165-107.8140-107.8139-107.8136-107.8129
  -107.8127-107.8121-107.8118-107.8117-107.8113-107.8106-107.8104-107.8100
  -107.8096-107.8089-107.8076-107.8070-107.8052-107.8042-107.8039-107.8035
  -107.8033-107.8024-107.8022-107.7996-107.7982-107.7975-107.7957-107.7950
  -107.7945-107.7941-107.7939-107.7926-107.5913-107.5901-107.5888-107.5870
  -107.5867-107.5864-107.5842-107.5825-107.5823-107.5603-107.5589-107.5588
  -107.5560-107.5558-107.5549-107.5549-107.5546-107.5544 -65.2718 -65.2675
   -65.2666 -65.2660 -65.2654 -65.2647 -65.2642 -65.2629 -65.2613 -65.2596
   -65.2593 -65.2583 -65.2556 -65.2539 -65.2534 -65.2530 -65.2529 -65.2504
   -65.2482 -65.2469 -65.2467 -65.2466 -65.2462 -65.2449 -65.2445 -65.2437
   -65.2429 -65.2425 -65.2401 -65.2394 -65.2355 -65.2344 -65.2340 -65.2332
   -65.2308 -65.2305 -65.2300 -65.2295 -65.2292 -65.2268 -65.2259 -65.2257
   -65.2249 -65.2242 -65.2236 -65.2231 -65.2222 -65.2200 -65.2197 -65.2194
   -65.2192 -65.2190 -65.2188 -65.2178 -65.2174 -65.2170 -65.2163 -65.2156
   -65.2152 -65.2139 -65.2137 -65.2135 -65.2133 -65.2128 -65.2112 -65.2103
   -65.2100 -65.2098 -65.2094 -65.2092 -65.2084 -65.2084 -65.2079 -65.2077
   -65.2074 -65.2065 -65.2062 -65.2055 -65.2051 -65.2046 -65.2043 -65.2032
   -65.2026 -65.2022 -65.2021 -65.2019 -65.2017 -65.2016 -65.2014 -65.2012
   -65.1995 -65.1991 -65.1988 -65.1970 -65.1966 -65.1961 -65.1958 -65.1957
   -65.1950 -65.1948 -65.1928 -65.1918 -65.1916 -65.1907 -65.1871 -65.1852
   -65.1851 -65.1814 -65.0573 -65.0561 -65.0537 -65.0471 -65.0438 -65.0424
   -65.0293 -65.0292 -65.0264 -65.0240 -65.0224 -65.0208 -65.0203 -65.0199
   -65.0161 -65.0160 -65.0158 -65.0146 -65.0140 -65.0134 -65.0074 -65.0032
   -65.0024 -64.9985 -64.9964 -64.9944 -64.9935 -64.9935 -64.9878 -64.9877
   -64.9869 -64.9868 -64.9803 -64.9757 -64.9757 -64.9716 -64.9685 -64.9674
   -64.9661 -64.9647 -64.9642 -64.9641 -64.9611 -64.9593 -64.9592 -64.9324
   -64.9311 -64.9309 -64.9283 -64.9281 -64.9273 -64.9273 -64.9270 -64.9268
   -12.7135  -9.9733  -9.9703  -6.3755  -6.3679  -4.3946  -3.4532  -2.8496
    -2.7931  -2.6472  -2.6469  -2.4685  -2.0770  -2.0752  -1.9425  -1.8742
    -1.8441  -1.2283  -1.2157  -0.8808  -0.6387  -0.6361  -0.6062  -0.2866
    -0.2855  -0.2462  -0.2198  -0.0451  -0.0450  -0.0353   0.0651   0.1046
     0.1299   0.1318   0.1496   0.1498   0.1663   0.2157   0.2274   0.2275
     0.2451   0.3438   0.3468   0.3497   0.3499   0.4204   0.4274   0.4872
     0.4885   0.4999   0.5109   0.5392   0.5393   0.5417   0.5598   0.5612
     0.6250   0.6257   0.6543   0.6549   0.6852   0.6852   0.7117   0.7201
     0.7207   0.7860   0.7862   0.8148   0.8358   0.8486   0.8490   0.9213
     0.9243   0.9749   0.9944   0.9949   1.0215   1.0219   1.0808   1.0895
     1.0905   1.1061   1.1063   1.1183   1.1582   1.1849   1.1854   1.2284
     1.2291   1.2545   1.2581   1.2599   1.2617   1.2788   1.2789   1.3359
     1.3370   1.3404   1.3412   1.3455   1.3564   1.3746   1.3760   1.3875
     1.3889   1.4153   1.4175   1.4385   1.4395   1.4411   1.4599   1.4864
     1.5266   1.5331   1.5341   1.5350   1.5360   1.5641   1.5815   1.5853
     1.5878   1.6241   1.6255   1.6263   1.6290   1.6359   1.6589   1.6792
     1.6800   1.6947   1.6948   1.7129   1.7222   1.7337   1.7345   1.7405
     1.7417   1.7591   1.7605   1.7772   1.7776   1.7934   1.8008   1.8133
     1.8242   1.8272   1.8460   1.8558   1.8609   1.8623   1.8707   1.8777
     1.8791   1.8856   1.8916   1.8920   1.9051   1.9059   1.9078   1.9090
     1.9311   1.9386   1.9547   1.9594   1.9711   1.9787   1.9852   1.9864
     1.9972   1.9977   1.9985   2.0026   2.0041   2.0069   2.0101   2.0129
     2.0429   2.0557   2.0853   2.0944   2.1406   2.1413   2.1431   2.1481
     2.1535   2.1585   2.1755   2.1758   2.1993   2.2113   2.2140   2.2206
     2.2417   2.2426   2.2789   2.2831   2.2837   2.3120   2.3131   2.3147
     2.3152   2.3170   2.3189   2.3207   2.3248   2.3332   2.3518   2.3528
     2.3972   2.4012   2.4022   2.4038   2.4099   2.4146   2.4223   2.4458
     2.4507   2.4548   2.4687   2.4912   2.4919   2.5118   2.5186   2.5192
     2.5305   2.5340   2.5638   2.5720   2.5764   2.5788   2.6046   2.6062
     2.6273   2.6325   2.6331   2.6515   2.6538   2.6746   2.6763   2.6780
     2.6803   2.6845   2.6950   2.6957   2.7008   2.7077   2.7150   2.7328
     2.7665   2.7706   2.7714   2.7772   2.8221   2.8226   2.8346   2.8385
     2.8664   2.8782   2.8795   2.8856   2.8862   2.8974   2.9018   2.9298
     2.9314   2.9316   2.9403   2.9409   2.9506   2.9534   2.9548   2.9557
     2.9588   2.9638   2.9644   2.9656   2.9686   2.9821   2.9835   2.9971
     2.9980   3.0082   3.0088   3.0094   3.0208   3.0363   3.0415   3.0480
     3.0487   3.0655   3.0939   3.0945   3.1076   3.1283   3.1290   3.2861
     3.2948   3.3968   3.3970   3.4971   3.4980   3.6086   3.8209   3.8259
     4.2045   4.2242   4.3064   4.3072   4.3212   4.5821   4.6870   4.7001
     4.7136   4.7140   4.8566   5.1573   5.1851   5.1864   5.6332   5.6696
     5.6969   5.7673   5.9242   5.9376   5.9391   6.0698   6.0812   6.1596
     6.2376   6.6041   6.6780   6.6828   6.8518   6.9522   6.9920   7.0611
     7.0631   7.2401   7.2777   7.3858   7.6071   7.7636   7.9002   7.9543
     8.4616   8.4911   8.4917   8.5942   8.7389   8.9944   9.1342   9.1589
     9.2172   9.3165   9.3317   9.4724   9.4891   9.6429   9.6723   9.7089
     9.7997   9.9059  10.0125  10.1192  10.1684  10.3579  10.4234  10.4552
    10.5135  10.6092  10.7132  10.8173  10.8623  11.0679  11.0792  11.1822
    11.2364  11.2555  11.4583  11.4855  11.4947  11.5965  11.6146  11.7052
    11.7182  11.8189  11.8627  11.8715  11.9968  12.0968  12.1335  12.1662
    12.2823  12.3742  12.4215  12.4422  12.5121  12.5541  12.5992  12.6266
    12.7116  12.7474  12.8252  12.8682  12.9412  13.0073  13.1550  13.2238
    13.2860  13.3109  13.3775  13.4241  13.4839  13.5313  13.5432  13.6391
    13.6735  13.6901

          k =-0.2500 0.1443 0.0000 ( 61417 PWs)   bands (ev):

  -107.8215-107.8188-107.8165-107.8157-107.8150-107.8142-107.8136-107.8133
  -107.8127-107.8120-107.8119-107.8112-107.8111-107.8109-107.8106-107.8098
  -107.8098-107.8096-107.8069-107.8060-107.8057-107.8044-107.8043-107.8036
  -107.8033-107.8022-107.8022-107.8002-107.7976-107.7964-107.7963-107.7952
  -107.7950-107.7943-107.7936-107.7926-107.5919-107.5893-107.5883-107.5875
  -107.5867-107.5865-107.5843-107.5825-107.5824-107.5612-107.5582-107.5572
  -107.5571-107.5557-107.5557-107.5552-107.5542-107.5542 -65.2744 -65.2655
   -65.2647 -65.2636 -65.2627 -65.2624 -65.2618 -65.2614 -65.2588 -65.2587
   -65.2576 -65.2575 -65.2560 -65.2558 -65.2513 -65.2501 -65.2499 -65.2481
   -65.2473 -65.2464 -65.2460 -65.2459 -65.2457 -65.2454 -65.2436 -65.2436
   -65.2430 -65.2425 -65.2387 -65.2387 -65.2360 -65.2356 -65.2355 -65.2344
   -65.2342 -65.2335 -65.2330 -65.2327 -65.2308 -65.2306 -65.2284 -65.2284
   -65.2254 -65.2250 -65.2247 -65.2244 -65.2236 -65.2235 -65.2225 -65.2218
   -65.2211 -65.2203 -65.2197 -65.2189 -65.2186 -65.2182 -65.2175 -65.2170
   -65.2166 -65.2152 -65.2148 -65.2147 -65.2143 -65.2143 -65.2141 -65.2118
   -65.2116 -65.2097 -65.2096 -65.2088 -65.2087 -65.2075 -65.2072 -65.2070
   -65.2065 -65.2061 -65.2061 -65.2057 -65.2054 -65.2053 -65.2053 -65.2038
   -65.2036 -65.2022 -65.2019 -65.2012 -65.2006 -65.2002 -65.2000 -65.1997
   -65.1996 -65.1992 -65.1979 -65.1963 -65.1962 -65.1943 -65.1930 -65.1929
   -65.1929 -65.1919 -65.1916 -65.1893 -65.1893 -65.1886 -65.1861 -65.1854
   -65.1823 -65.1792 -65.0549 -65.0497 -65.0493 -65.0477 -65.0472 -65.0361
   -65.0358 -65.0304 -65.0301 -65.0274 -65.0269 -65.0218 -65.0217 -65.0207
   -65.0205 -65.0126 -65.0118 -65.0106 -65.0087 -65.0086 -65.0075 -65.0074
   -65.0036 -65.0030 -65.0028 -65.0000 -64.9995 -64.9964 -64.9846 -64.9845
   -64.9835 -64.9805 -64.9803 -64.9764 -64.9726 -64.9694 -64.9691 -64.9667
   -64.9657 -64.9651 -64.9642 -64.9642 -64.9612 -64.9593 -64.9592 -64.9332
   -64.9304 -64.9294 -64.9294 -64.9280 -64.9280 -64.9276 -64.9266 -64.9266
   -12.7143  -9.9710  -9.9684  -6.3765  -6.3683  -4.4216  -3.8732  -3.2587
    -2.8211  -2.4650  -2.3202  -2.2703  -1.8593  -1.8168  -1.7217  -1.5594
    -1.5588  -1.2193  -1.0779  -1.0756  -0.9292  -0.6447  -0.5028  -0.5024
    -0.4138  -0.4077  -0.3144  -0.2915  -0.2172  -0.2167  -0.0819  -0.0498
    -0.0439   0.0536   0.0570   0.0580   0.0864   0.1266   0.2323   0.2381
     0.2637   0.3294   0.3296   0.5123   0.5187   0.5494   0.5494   0.5732
     0.5855   0.5855   0.6082   0.6085   0.6536   0.6564   0.6578   0.6587
     0.6704   0.6707   0.7113   0.7114   0.7475   0.7475   0.7766   0.7767
     0.7825   0.8276   0.8284   0.8425   0.8425   0.8641   0.8645   0.8769
     0.8770   0.9088   0.9091   0.9521   1.0202   1.0202   1.0248   1.0501
     1.0501   1.0633   1.0641   1.0985   1.0988   1.1348   1.1372   1.1372
     1.2014   1.2014   1.2232   1.2264   1.2472   1.2474   1.2923   1.2928
     1.3085   1.3295   1.3335   1.3345   1.3620   1.4050   1.4057   1.4230
     1.4233   1.4317   1.4638   1.4685   1.4811   1.5035   1.5038   1.5123
     1.5426   1.5430   1.5711   1.6082   1.6237   1.6330   1.6330   1.6444
     1.6453   1.6464   1.6775   1.6838   1.6909   1.7023   1.7026   1.7183
     1.7212   1.7219   1.7405   1.7444   1.7507   1.7622   1.7742   1.7780
     1.7793   1.7866   1.7878   1.7944   1.7976   1.8135   1.8153   1.8192
     1.8192   1.8230   1.8425   1.8476   1.8544   1.8578   1.8674   1.8798
     1.8811   1.8817   1.8822   1.9195   1.9208   1.9254   1.9264   1.9381
     1.9406   1.9433   1.9569   1.9623   1.9627   1.9646   1.9763   1.9869
     1.9944   2.0107   2.0347   2.0364   2.0487   2.0491   2.0612   2.0627
     2.0628   2.0743   2.0780   2.1031   2.1031   2.1168   2.1225   2.1473
     2.1573   2.1648   2.1898   2.1957   2.2010   2.2013   2.2239   2.2256
     2.2628   2.2800   2.3059   2.3076   2.3143   2.3158   2.3274   2.3282
     2.3564   2.3592   2.3691   2.3697   2.3737   2.3757   2.4064   2.4067
     2.4370   2.4420   2.4461   2.4470   2.4546   2.4799   2.4834   2.4859
     2.4881   2.4917   2.5211   2.5321   2.5363   2.5421   2.5428   2.5599
     2.5643   2.5646   2.5820   2.5851   2.5856   2.5857   2.5956   2.5992
     2.6211   2.6303   2.6703   2.6751   2.6794   2.7071   2.7087   2.7176
     2.7204   2.7212   2.7218   2.7256   2.7441   2.7446   2.7459   2.7588
     2.7624   2.7632   2.7671   2.7763   2.8004   2.8133   2.8133   2.8167
     2.8268   2.8275   2.8465   2.8480   2.8546   2.8562   2.9014   2.9016
     2.9016   2.9084   2.9084   2.9148   2.9244   2.9256   2.9310   2.9350
     2.9364   2.9365   2.9428   2.9431   2.9465   2.9519   2.9601   2.9608
     2.9785   2.9905   2.9906   2.9914   2.9934   2.9980   2.9994   2.9997
     3.0218   3.0304   3.0403   3.0427   3.0442   3.0472   3.0602   3.0612
     3.1275   3.1510   3.1948   3.2827   3.3072   3.3074   3.3870   3.4676
     3.4678   3.7210   3.7710   3.7734   3.7777   3.7970   4.0851   4.2901
     4.4702   4.7458   4.7481   4.9674   5.0526   5.0645   5.0974   5.8348
     5.8351   6.0521   6.1897   6.2109   6.2318   6.2325   6.4735   6.7080
     6.7759   6.8966   6.9132   7.2143   7.2639   7.3842   7.4769   7.7324
     7.7656   7.7770   7.9522   8.0237   8.2252   8.2347   8.2784   8.3912
     8.3941   8.7016   8.7041   8.7597   8.8467   8.9447   9.2511   9.2538
     9.3169   9.4100   9.5709   9.6470   9.7777   9.8269   9.9181   9.9515
     9.9963  10.0032  10.0474  10.1225  10.2598  10.4016  10.4046  10.4603
    10.5192  10.5512  10.6102  10.6516  10.7204  10.7696  10.7732  10.8521
    10.9415  10.9510  10.9645  11.0297  11.0960  11.2367  11.4394  11.4540
    11.4881  11.5168  11.5752  11.5847  11.6822  11.7702  11.9226  11.9690
    12.0385  12.1674  12.2269  12.3093  12.3414  12.4190  12.4771  12.5032
    12.5397  12.5775  12.6384  12.6893  12.8262  12.8335  12.8523  12.8750
    12.9537  13.0170  13.1205  13.1376  13.1896  13.2326  13.2463  13.3597
    13.3943  13.4544

          k = 0.2500 0.1443 0.0000 ( 61417 PWs)   bands (ev):

  -107.8215-107.8188-107.8165-107.8157-107.8150-107.8142-107.8136-107.8133
  -107.8127-107.8120-107.8119-107.8112-107.8111-107.8109-107.8106-107.8098
  -107.8098-107.8096-107.8069-107.8060-107.8057-107.8044-107.8043-107.8036
  -107.8033-107.8022-107.8022-107.8002-107.7976-107.7964-107.7963-107.7952
  -107.7950-107.7943-107.7936-107.7926-107.5919-107.5893-107.5883-107.5875
  -107.5867-107.5865-107.5843-107.5825-107.5824-107.5612-107.5582-107.5572
  -107.5571-107.5557-107.5557-107.5552-107.5542-107.5542 -65.2744 -65.2655
   -65.2647 -65.2636 -65.2627 -65.2624 -65.2618 -65.2614 -65.2588 -65.2587
   -65.2576 -65.2575 -65.2560 -65.2558 -65.2513 -65.2501 -65.2499 -65.2481
   -65.2473 -65.2464 -65.2460 -65.2459 -65.2457 -65.2454 -65.2436 -65.2436
   -65.2430 -65.2425 -65.2387 -65.2387 -65.2360 -65.2356 -65.2355 -65.2344
   -65.2342 -65.2335 -65.2330 -65.2327 -65.2308 -65.2306 -65.2284 -65.2284
   -65.2254 -65.2250 -65.2247 -65.2244 -65.2236 -65.2235 -65.2225 -65.2218
   -65.2211 -65.2203 -65.2197 -65.2189 -65.2186 -65.2182 -65.2175 -65.2170
   -65.2166 -65.2152 -65.2148 -65.2147 -65.2143 -65.2143 -65.2141 -65.2118
   -65.2116 -65.2097 -65.2096 -65.2088 -65.2087 -65.2075 -65.2072 -65.2070
   -65.2065 -65.2061 -65.2061 -65.2057 -65.2054 -65.2053 -65.2053 -65.2038
   -65.2036 -65.2022 -65.2019 -65.2012 -65.2006 -65.2002 -65.2000 -65.1997
   -65.1996 -65.1992 -65.1979 -65.1963 -65.1962 -65.1943 -65.1930 -65.1929
   -65.1929 -65.1919 -65.1916 -65.1893 -65.1893 -65.1886 -65.1861 -65.1854
   -65.1823 -65.1792 -65.0549 -65.0497 -65.0493 -65.0477 -65.0472 -65.0361
   -65.0358 -65.0304 -65.0301 -65.0274 -65.0269 -65.0218 -65.0217 -65.0207
   -65.0205 -65.0126 -65.0118 -65.0106 -65.0087 -65.0086 -65.0075 -65.0074
   -65.0036 -65.0030 -65.0028 -65.0000 -64.9995 -64.9964 -64.9846 -64.9845
   -64.9835 -64.9805 -64.9803 -64.9764 -64.9726 -64.9694 -64.9691 -64.9667
   -64.9657 -64.9651 -64.9642 -64.9642 -64.9612 -64.9593 -64.9592 -64.9332
   -64.9304 -64.9294 -64.9294 -64.9280 -64.9280 -64.9276 -64.9266 -64.9266
   -12.7143  -9.9710  -9.9683  -6.3765  -6.3684  -4.4216  -3.8732  -3.2587
    -2.8211  -2.4650  -2.3202  -2.2703  -1.8594  -1.8167  -1.7217  -1.5594
    -1.5588  -1.2193  -1.0779  -1.0756  -0.9292  -0.6447  -0.5028  -0.5024
    -0.4138  -0.4077  -0.3144  -0.2915  -0.2172  -0.2167  -0.0819  -0.0498
    -0.0439   0.0536   0.0570   0.0580   0.0863   0.1267   0.2323   0.2381
     0.2637   0.3294   0.3296   0.5123   0.5187   0.5494   0.5494   0.5732
     0.5855   0.5855   0.6082   0.6085   0.6536   0.6564   0.6578   0.6587
     0.6704   0.6707   0.7113   0.7114   0.7475   0.7475   0.7766   0.7767
     0.7825   0.8276   0.8284   0.8425   0.8425   0.8641   0.8645   0.8769
     0.8770   0.9088   0.9091   0.9521   1.0202   1.0202   1.0248   1.0501
     1.0501   1.0633   1.0641   1.0985   1.0988   1.1348   1.1372   1.1372
     1.2014   1.2014   1.2232   1.2264   1.2472   1.2474   1.2923   1.2928
     1.3085   1.3295   1.3335   1.3345   1.3620   1.4050   1.4057   1.4230
     1.4233   1.4317   1.4638   1.4685   1.4811   1.5035   1.5038   1.5123
     1.5426   1.5430   1.5711   1.6082   1.6237   1.6330   1.6330   1.6444
     1.6453   1.6464   1.6775   1.6838   1.6909   1.7023   1.7026   1.7183
     1.7212   1.7219   1.7405   1.7444   1.7507   1.7622   1.7742   1.7780
     1.7793   1.7866   1.7878   1.7944   1.7976   1.8135   1.8153   1.8192
     1.8192   1.8230   1.8425   1.8476   1.8544   1.8578   1.8674   1.8798
     1.8811   1.8817   1.8822   1.9195   1.9208   1.9254   1.9264   1.9381
     1.9406   1.9433   1.9569   1.9623   1.9627   1.9646   1.9763   1.9869
     1.9944   2.0107   2.0347   2.0364   2.0487   2.0491   2.0612   2.0627
     2.0628   2.0743   2.0780   2.1031   2.1031   2.1168   2.1225   2.1473
     2.1573   2.1648   2.1898   2.1957   2.2010   2.2013   2.2239   2.2256
     2.2628   2.2800   2.3059   2.3076   2.3143   2.3158   2.3274   2.3282
     2.3564   2.3592   2.3691   2.3697   2.3737   2.3757   2.4064   2.4067
     2.4370   2.4420   2.4461   2.4470   2.4546   2.4799   2.4834   2.4859
     2.4881   2.4917   2.5211   2.5321   2.5363   2.5421   2.5428   2.5599
     2.5643   2.5646   2.5820   2.5851   2.5856   2.5857   2.5956   2.5992
     2.6211   2.6303   2.6703   2.6751   2.6794   2.7071   2.7087   2.7176
     2.7204   2.7212   2.7218   2.7256   2.7441   2.7446   2.7459   2.7588
     2.7624   2.7632   2.7671   2.7763   2.8004   2.8133   2.8133   2.8167
     2.8268   2.8275   2.8465   2.8480   2.8546   2.8562   2.9014   2.9016
     2.9016   2.9084   2.9084   2.9148   2.9244   2.9256   2.9310   2.9350
     2.9364   2.9365   2.9428   2.9431   2.9465   2.9519   2.9601   2.9608
     2.9785   2.9905   2.9906   2.9914   2.9934   2.9980   2.9994   2.9997
     3.0218   3.0304   3.0403   3.0427   3.0442   3.0472   3.0602   3.0612
     3.1275   3.1510   3.1948   3.2827   3.3072   3.3074   3.3870   3.4676
     3.4678   3.7210   3.7710   3.7734   3.7777   3.7970   4.0851   4.2901
     4.4702   4.7458   4.7481   4.9674   5.0526   5.0645   5.0974   5.8348
     5.8351   6.0521   6.1897   6.2109   6.2318   6.2325   6.4735   6.7080
     6.7759   6.8966   6.9132   7.2143   7.2639   7.3842   7.4769   7.7324
     7.7656   7.7770   7.9522   8.0237   8.2252   8.2347   8.2784   8.3912
     8.3941   8.7016   8.7041   8.7597   8.8467   8.9447   9.2511   9.2538
     9.3169   9.4100   9.5709   9.6470   9.7776   9.8269   9.9181   9.9515
     9.9963  10.0032  10.0474  10.1225  10.2598  10.4016  10.4046  10.4603
    10.5192  10.5512  10.6102  10.6516  10.7204  10.7696  10.7732  10.8521
    10.9415  10.9510  10.9645  11.0297  11.0960  11.2367  11.4394  11.4540
    11.4881  11.5168  11.5752  11.5847  11.6822  11.7702  11.9226  11.9690
    12.0385  12.1674  12.2269  12.3093  12.3414  12.4190  12.4771  12.5032
    12.5397  12.5775  12.6384  12.6893  12.8262  12.8335  12.8523  12.8750
    12.9537  13.0170  13.1205  13.1376  13.1896  13.2326  13.2463  13.3597
    13.3943  13.4544

          k = 0.5000-0.2887 0.0000 ( 61408 PWs)   bands (ev):

  -107.8209-107.8190-107.8173-107.8159-107.8151-107.8139-107.8132-107.8127
  -107.8124-107.8121-107.8118-107.8117-107.8115-107.8109-107.8102-107.8100
  -107.8096-107.8088-107.8081-107.8062-107.8059-107.8040-107.8039-107.8035
  -107.8033-107.8024-107.8022-107.7995-107.7986-107.7966-107.7965-107.7949
  -107.7942-107.7942-107.7940-107.7927-107.5912-107.5904-107.5884-107.5875
  -107.5865-107.5863-107.5842-107.5825-107.5824-107.5600-107.5599-107.5574
  -107.5574-107.5550-107.5549-107.5548-107.5547-107.5546 -65.2709 -65.2701
   -65.2678 -65.2665 -65.2629 -65.2626 -65.2615 -65.2613 -65.2605 -65.2603
   -65.2597 -65.2595 -65.2593 -65.2587 -65.2553 -65.2492 -65.2486 -65.2485
   -65.2481 -65.2479 -65.2475 -65.2474 -65.2468 -65.2465 -65.2443 -65.2441
   -65.2436 -65.2431 -65.2369 -65.2365 -65.2357 -65.2354 -65.2349 -65.2344
   -65.2333 -65.2298 -65.2297 -65.2275 -65.2262 -65.2261 -65.2260 -65.2257
   -65.2254 -65.2243 -65.2231 -65.2231 -65.2226 -65.2219 -65.2218 -65.2214
   -65.2188 -65.2188 -65.2186 -65.2182 -65.2180 -65.2177 -65.2170 -65.2160
   -65.2136 -65.2130 -65.2126 -65.2122 -65.2121 -65.2116 -65.2115 -65.2114
   -65.2114 -65.2112 -65.2110 -65.2100 -65.2084 -65.2083 -65.2078 -65.2073
   -65.2073 -65.2068 -65.2053 -65.2048 -65.2043 -65.2040 -65.2040 -65.2035
   -65.2028 -65.2027 -65.2021 -65.2013 -65.2010 -65.2008 -65.2006 -65.2003
   -65.2003 -65.1996 -65.1995 -65.1970 -65.1968 -65.1966 -65.1964 -65.1955
   -65.1942 -65.1931 -65.1927 -65.1926 -65.1907 -65.1904 -65.1892 -65.1887
   -65.1821 -65.1815 -65.0590 -65.0520 -65.0516 -65.0503 -65.0497 -65.0325
   -65.0321 -65.0316 -65.0238 -65.0237 -65.0236 -65.0235 -65.0211 -65.0204
   -65.0194 -65.0189 -65.0123 -65.0118 -65.0114 -65.0085 -65.0073 -65.0051
   -65.0049 -65.0005 -64.9985 -64.9927 -64.9926 -64.9926 -64.9924 -64.9846
   -64.9843 -64.9841 -64.9815 -64.9813 -64.9725 -64.9723 -64.9684 -64.9676
   -64.9658 -64.9650 -64.9641 -64.9641 -64.9611 -64.9593 -64.9592 -64.9321
   -64.9319 -64.9296 -64.9296 -64.9274 -64.9273 -64.9272 -64.9270 -64.9270
   -12.7135  -9.9745  -9.9691  -6.3798  -6.3636  -4.3944  -3.2478  -3.2476
    -2.7933  -2.6513  -2.6504  -2.4687  -1.9140  -1.8245  -1.7505  -1.7333
    -1.7150  -1.7141  -1.2081  -1.2053  -0.7910  -0.6799  -0.5481  -0.4848
    -0.4550  -0.1022   0.0411   0.0789   0.0817   0.1013   0.1015   0.1017
     0.1018   0.1041   0.1272   0.1890   0.2590   0.2662   0.2700   0.2763
     0.2808   0.2997   0.2998   0.3000   0.3001   0.3551   0.3552   0.3556
     0.3556   0.4830   0.5192   0.5193   0.5202   0.5203   0.5564   0.6003
     0.6978   0.6979   0.6981   0.6982   0.7103   0.7330   0.7359   0.7502
     0.7502   0.7512   0.7514   0.8716   0.8717   0.8720   0.8721   0.8941
     0.8951   0.9811   0.9928   0.9929   0.9940   0.9942   1.0320   1.0322
     1.0760   1.0761   1.1442   1.1445   1.1456   1.1458   1.2072   1.2074
     1.2374   1.2384   1.2552   1.2556   1.2570   1.2575   1.2765   1.2766
     1.3062   1.3134   1.3613   1.3765   1.3776   1.4044   1.4054   1.4211
     1.4251   1.4335   1.4337   1.4344   1.4344   1.4896   1.4921   1.4942
     1.4947   1.4954   1.4957   1.5448   1.5504   1.5667   1.5691   1.5705
     1.5706   1.5789   1.5796   1.5796   1.6158   1.6373   1.6634   1.6674
     1.6682   1.6746   1.6833   1.7178   1.7185   1.7188   1.7190   1.7191
     1.7263   1.7336   1.7826   1.7832   1.7892   1.7912   1.8026   1.8032
     1.8362   1.8368   1.8377   1.8382   1.8553   1.8617   1.8625   1.8647
     1.8651   1.8859   1.8873   1.8917   1.8922   1.9230   1.9234   1.9457
     1.9559   1.9565   1.9619   1.9900   2.0158   2.0170   2.0240   2.0246
     2.0272   2.0274   2.0327   2.0364   2.0368   2.0448   2.0452   2.0564
     2.0635   2.0700   2.0729   2.0779   2.0780   2.0877   2.0968   2.1504
     2.1581   2.1586   2.1740   2.2396   2.2397   2.2404   2.2405   2.2432
     2.2451   2.2456   2.2545   2.2550   2.2588   2.2728   2.2815   2.3035
     2.3176   2.3185   2.3187   2.3272   2.3399   2.3401   2.3403   2.3410
     2.3414   2.3483   2.3654   2.3659   2.3704   2.3757   2.3762   2.4555
     2.4764   2.4962   2.4967   2.5239   2.5241   2.5248   2.5255   2.5560
     2.5564   2.5612   2.5744   2.5948   2.5964   2.6001   2.6008   2.6115
     2.6223   2.6372   2.6376   2.6379   2.6379   2.6390   2.6510   2.6700
     2.6708   2.6728   2.6768   2.7261   2.7261   2.7275   2.7279   2.7386
     2.7395   2.7624   2.7631   2.7914   2.7921   2.7985   2.8003   2.8248
     2.8248   2.8482   2.8518   2.8577   2.8720   2.9107   2.9125   2.9262
     2.9283   2.9326   2.9333   2.9502   2.9622   2.9623   2.9657   2.9662
     2.9683   2.9700   2.9868   2.9904   2.9905   2.9907   2.9911   3.0080
     3.0086   3.0090   3.0204   3.0228   3.0380   3.0385   3.0555   3.0557
     3.0563   3.0590   3.0645   3.0780   3.0946   3.1074   3.1077   3.1088
     3.1090   3.2060   3.2306   3.7413   3.7651   3.7693   3.7787   4.2728
     4.3191   4.3193   4.3196   4.3197   4.5871   4.5883   4.5892   4.5896
     4.9283   4.9396   4.9643   5.0646   5.1078   5.1380   5.1451   5.1473
     5.1519   5.4310   5.7693   6.0249   6.0454   6.0736   6.0983   6.1252
     6.1287   6.1408   6.1871   6.5771   6.6488   7.1388   7.2342   7.4361
     7.4372   7.4400   7.6247   7.9129   7.9798   8.1790   8.2996   8.4208
     8.5597   8.5652   8.5655   8.5917   8.9008   8.9370   8.9449   9.1950
     9.2111   9.2134   9.2260   9.2464   9.4573   9.6097   9.6471   9.7765
     9.8129   9.8784   9.8910   9.9071   9.9200  10.2789  10.3122  10.3714
    10.4125  10.4360  10.5026  10.5130  10.5363  10.8080  10.8559  11.0224
    11.0705  11.1623  11.2605  11.2787  11.3579  11.3749  11.4512  11.4875
    11.4955  11.5840  11.7197  12.0342  12.1230  12.1375  12.2398  12.2751
    12.2844  12.3164  12.4345  12.5408  12.7533  12.7769  12.8974  12.9607
    12.9849  13.0392  13.0464  13.1130  13.1241  13.2128  13.2323  13.2497
    13.2659  13.2937  13.2981  13.3470  13.5084  13.6197  13.6931  13.6941
    13.7578  13.8468

          k =-0.5000-0.2887 0.0000 ( 61408 PWs)   bands (ev):

  -107.8209-107.8190-107.8173-107.8159-107.8151-107.8139-107.8132-107.8127
  -107.8124-107.8121-107.8118-107.8117-107.8115-107.8109-107.8102-107.8100
  -107.8096-107.8088-107.8081-107.8062-107.8059-107.8040-107.8039-107.8035
  -107.8033-107.8024-107.8022-107.7995-107.7986-107.7966-107.7965-107.7949
  -107.7942-107.7942-107.7940-107.7927-107.5912-107.5904-107.5884-107.5875
  -107.5865-107.5863-107.5842-107.5825-107.5824-107.5600-107.5599-107.5574
  -107.5574-107.5550-107.5549-107.5548-107.5547-107.5546 -65.2709 -65.2701
   -65.2678 -65.2665 -65.2629 -65.2626 -65.2615 -65.2613 -65.2605 -65.2603
   -65.2597 -65.2595 -65.2593 -65.2587 -65.2553 -65.2492 -65.2486 -65.2485
   -65.2481 -65.2479 -65.2475 -65.2474 -65.2468 -65.2465 -65.2443 -65.2441
   -65.2436 -65.2431 -65.2369 -65.2365 -65.2357 -65.2354 -65.2349 -65.2344
   -65.2333 -65.2298 -65.2297 -65.2275 -65.2262 -65.2261 -65.2260 -65.2257
   -65.2254 -65.2243 -65.2231 -65.2231 -65.2226 -65.2219 -65.2218 -65.2214
   -65.2188 -65.2188 -65.2186 -65.2182 -65.2180 -65.2177 -65.2170 -65.2160
   -65.2136 -65.2130 -65.2126 -65.2122 -65.2121 -65.2116 -65.2115 -65.2114
   -65.2114 -65.2112 -65.2110 -65.2100 -65.2084 -65.2083 -65.2078 -65.2073
   -65.2073 -65.2068 -65.2053 -65.2048 -65.2043 -65.2040 -65.2040 -65.2035
   -65.2028 -65.2027 -65.2021 -65.2013 -65.2010 -65.2008 -65.2006 -65.2003
   -65.2003 -65.1996 -65.1995 -65.1970 -65.1968 -65.1966 -65.1964 -65.1955
   -65.1942 -65.1931 -65.1927 -65.1926 -65.1907 -65.1904 -65.1892 -65.1887
   -65.1821 -65.1815 -65.0590 -65.0520 -65.0516 -65.0503 -65.0497 -65.0325
   -65.0321 -65.0316 -65.0238 -65.0237 -65.0236 -65.0235 -65.0211 -65.0204
   -65.0194 -65.0189 -65.0123 -65.0118 -65.0114 -65.0085 -65.0073 -65.0051
   -65.0049 -65.0005 -64.9985 -64.9927 -64.9926 -64.9926 -64.9924 -64.9846
   -64.9843 -64.9841 -64.9815 -64.9813 -64.9725 -64.9723 -64.9684 -64.9676
   -64.9658 -64.9650 -64.9641 -64.9641 -64.9611 -64.9593 -64.9592 -64.9321
   -64.9319 -64.9296 -64.9296 -64.9274 -64.9273 -64.9272 -64.9270 -64.9270
   -12.7135  -9.9745  -9.9691  -6.3797  -6.3637  -4.3944  -3.2478  -3.2476
    -2.7933  -2.6513  -2.6504  -2.4688  -1.9141  -1.8245  -1.7505  -1.7333
    -1.7150  -1.7141  -1.2081  -1.2053  -0.7910  -0.6799  -0.5481  -0.4848
    -0.4550  -0.1022   0.0410   0.0789   0.0817   0.1013   0.1015   0.1017
     0.1018   0.1041   0.1273   0.1890   0.2590   0.2662   0.2700   0.2763
     0.2808   0.2997   0.2998   0.3000   0.3001   0.3551   0.3552   0.3556
     0.3556   0.4830   0.5192   0.5193   0.5202   0.5203   0.5564   0.6003
     0.6978   0.6979   0.6981   0.6982   0.7103   0.7330   0.7359   0.7502
     0.7502   0.7512   0.7514   0.8716   0.8717   0.8720   0.8721   0.8941
     0.8951   0.9811   0.9928   0.9929   0.9940   0.9942   1.0320   1.0322
     1.0760   1.0761   1.1442   1.1445   1.1456   1.1458   1.2072   1.2074
     1.2374   1.2384   1.2552   1.2556   1.2570   1.2575   1.2765   1.2766
     1.3062   1.3134   1.3613   1.3765   1.3776   1.4044   1.4054   1.4211
     1.4251   1.4335   1.4337   1.4344   1.4344   1.4896   1.4921   1.4942
     1.4947   1.4954   1.4957   1.5448   1.5504   1.5667   1.5691   1.5705
     1.5706   1.5789   1.5796   1.5796   1.6158   1.6373   1.6634   1.6674
     1.6682   1.6746   1.6833   1.7178   1.7185   1.7188   1.7190   1.7191
     1.7263   1.7336   1.7826   1.7832   1.7892   1.7912   1.8026   1.8032
     1.8362   1.8368   1.8377   1.8382   1.8553   1.8617   1.8625   1.8647
     1.8651   1.8859   1.8873   1.8917   1.8922   1.9230   1.9234   1.9457
     1.9559   1.9565   1.9618   1.9900   2.0158   2.0170   2.0240   2.0246
     2.0272   2.0274   2.0327   2.0364   2.0368   2.0448   2.0452   2.0565
     2.0635   2.0700   2.0729   2.0779   2.0780   2.0877   2.0968   2.1504
     2.1581   2.1586   2.1740   2.2396   2.2397   2.2404   2.2405   2.2432
     2.2451   2.2456   2.2545   2.2550   2.2588   2.2728   2.2815   2.3035
     2.3176   2.3185   2.3187   2.3272   2.3399   2.3401   2.3403   2.3410
     2.3414   2.3483   2.3654   2.3659   2.3704   2.3757   2.3762   2.4555
     2.4764   2.4962   2.4967   2.5239   2.5241   2.5248   2.5255   2.5560
     2.5564   2.5612   2.5744   2.5948   2.5964   2.6001   2.6008   2.6115
     2.6223   2.6372   2.6376   2.6379   2.6379   2.6390   2.6510   2.6700
     2.6708   2.6728   2.6768   2.7261   2.7261   2.7275   2.7280   2.7386
     2.7395   2.7624   2.7631   2.7914   2.7921   2.7985   2.8003   2.8248
     2.8248   2.8482   2.8518   2.8577   2.8720   2.9107   2.9125   2.9262
     2.9283   2.9326   2.9333   2.9502   2.9622   2.9623   2.9657   2.9662
     2.9683   2.9700   2.9868   2.9904   2.9905   2.9907   2.9911   3.0080
     3.0086   3.0090   3.0204   3.0228   3.0380   3.0385   3.0555   3.0557
     3.0563   3.0590   3.0645   3.0780   3.0946   3.1074   3.1077   3.1088
     3.1090   3.2060   3.2306   3.7413   3.7651   3.7693   3.7787   4.2728
     4.3191   4.3193   4.3196   4.3197   4.5871   4.5883   4.5892   4.5896
     4.9283   4.9396   4.9643   5.0646   5.1078   5.1380   5.1451   5.1473
     5.1519   5.4310   5.7693   6.0249   6.0454   6.0736   6.0983   6.1252
     6.1287   6.1408   6.1871   6.5771   6.6488   7.1388   7.2342   7.4361
     7.4372   7.4400   7.6247   7.9129   7.9798   8.1790   8.2996   8.4208
     8.5597   8.5652   8.5655   8.5917   8.9008   8.9370   8.9449   9.1950
     9.2111   9.2134   9.2260   9.2464   9.4573   9.6097   9.6471   9.7765
     9.8129   9.8784   9.8910   9.9071   9.9200  10.2789  10.3122  10.3714
    10.4125  10.4360  10.5026  10.5130  10.5363  10.8079  10.8559  11.0224
    11.0705  11.1623  11.2605  11.2787  11.3579  11.3749  11.4512  11.4875
    11.4955  11.5840  11.7197  12.0342  12.1230  12.1375  12.2398  12.2751
    12.2844  12.3164  12.4345  12.5408  12.7532  12.7770  12.8974  12.9607
    12.9849  13.0392  13.0464  13.1130  13.1241  13.2128  13.2323  13.2497
    13.2659  13.2937  13.2981  13.3470  13.5084  13.6197  13.6930  13.6941
    13.7578  13.8469

          k =-0.2500-0.7217 0.0000 ( 61343 PWs)   bands (ev):

  -107.8210-107.8188-107.8174-107.8165-107.8140-107.8139-107.8136-107.8129
  -107.8127-107.8121-107.8118-107.8117-107.8113-107.8106-107.8105-107.8100
  -107.8096-107.8089-107.8076-107.8070-107.8052-107.8042-107.8039-107.8035
  -107.8033-107.8024-107.8022-107.7996-107.7982-107.7975-107.7957-107.7950
  -107.7946-107.7941-107.7939-107.7926-107.5913-107.5901-107.5888-107.5870
  -107.5867-107.5864-107.5842-107.5825-107.5823-107.5603-107.5589-107.5588
  -107.5560-107.5558-107.5549-107.5549-107.5546-107.5544 -65.2718 -65.2675
   -65.2666 -65.2660 -65.2654 -65.2647 -65.2642 -65.2629 -65.2613 -65.2596
   -65.2593 -65.2583 -65.2556 -65.2539 -65.2534 -65.2530 -65.2529 -65.2504
   -65.2482 -65.2469 -65.2467 -65.2466 -65.2462 -65.2449 -65.2445 -65.2437
   -65.2429 -65.2425 -65.2401 -65.2394 -65.2355 -65.2344 -65.2340 -65.2332
   -65.2308 -65.2305 -65.2300 -65.2295 -65.2292 -65.2268 -65.2259 -65.2257
   -65.2249 -65.2242 -65.2236 -65.2231 -65.2222 -65.2200 -65.2197 -65.2194
   -65.2192 -65.2190 -65.2188 -65.2178 -65.2174 -65.2170 -65.2163 -65.2156
   -65.2152 -65.2139 -65.2137 -65.2135 -65.2133 -65.2128 -65.2112 -65.2103
   -65.2100 -65.2098 -65.2094 -65.2092 -65.2084 -65.2084 -65.2079 -65.2077
   -65.2074 -65.2065 -65.2062 -65.2055 -65.2051 -65.2046 -65.2043 -65.2032
   -65.2026 -65.2022 -65.2021 -65.2019 -65.2017 -65.2016 -65.2014 -65.2012
   -65.1995 -65.1991 -65.1988 -65.1970 -65.1966 -65.1961 -65.1958 -65.1957
   -65.1950 -65.1948 -65.1928 -65.1918 -65.1916 -65.1907 -65.1871 -65.1852
   -65.1851 -65.1814 -65.0573 -65.0561 -65.0537 -65.0471 -65.0438 -65.0424
   -65.0293 -65.0292 -65.0264 -65.0240 -65.0224 -65.0208 -65.0203 -65.0199
   -65.0162 -65.0160 -65.0158 -65.0146 -65.0140 -65.0134 -65.0074 -65.0032
   -65.0024 -64.9985 -64.9964 -64.9944 -64.9935 -64.9935 -64.9878 -64.9877
   -64.9869 -64.9868 -64.9803 -64.9757 -64.9757 -64.9716 -64.9685 -64.9674
   -64.9661 -64.9647 -64.9642 -64.9641 -64.9611 -64.9593 -64.9592 -64.9324
   -64.9311 -64.9309 -64.9283 -64.9281 -64.9273 -64.9273 -64.9270 -64.9268
   -12.7135  -9.9732  -9.9704  -6.3756  -6.3679  -4.3946  -3.4532  -2.8496
    -2.7931  -2.6472  -2.6469  -2.4685  -2.0770  -2.0752  -1.9425  -1.8741
    -1.8442  -1.2283  -1.2157  -0.8808  -0.6387  -0.6361  -0.6062  -0.2866
    -0.2855  -0.2462  -0.2198  -0.0451  -0.0450  -0.0353   0.0652   0.1045
     0.1299   0.1318   0.1496   0.1498   0.1663   0.2157   0.2274   0.2275
     0.2451   0.3438   0.3468   0.3497   0.3499   0.4204   0.4274   0.4872
     0.4885   0.4999   0.5109   0.5392   0.5393   0.5417   0.5598   0.5612
     0.6250   0.6257   0.6543   0.6549   0.6852   0.6852   0.7117   0.7201
     0.7207   0.7860   0.7862   0.8148   0.8358   0.8486   0.8490   0.9213
     0.9243   0.9749   0.9944   0.9949   1.0215   1.0219   1.0808   1.0895
     1.0905   1.1061   1.1063   1.1183   1.1582   1.1849   1.1854   1.2284
     1.2291   1.2545   1.2581   1.2599   1.2617   1.2788   1.2789   1.3359
     1.3370   1.3404   1.3412   1.3455   1.3564   1.3746   1.3760   1.3875
     1.3889   1.4153   1.4175   1.4385   1.4395   1.4411   1.4599   1.4864
     1.5266   1.5331   1.5341   1.5350   1.5360   1.5641   1.5815   1.5853
     1.5878   1.6241   1.6255   1.6263   1.6290   1.6359   1.6589   1.6792
     1.6800   1.6947   1.6948   1.7129   1.7222   1.7337   1.7345   1.7405
     1.7417   1.7591   1.7605   1.7772   1.7776   1.7934   1.8008   1.8133
     1.8242   1.8272   1.8460   1.8558   1.8609   1.8623   1.8707   1.8777
     1.8791   1.8856   1.8916   1.8920   1.9051   1.9059   1.9078   1.9090
     1.9311   1.9386   1.9547   1.9594   1.9711   1.9787   1.9852   1.9864
     1.9972   1.9977   1.9985   2.0026   2.0041   2.0069   2.0101   2.0129
     2.0429   2.0556   2.0853   2.0944   2.1406   2.1413   2.1431   2.1481
     2.1535   2.1585   2.1755   2.1758   2.1993   2.2113   2.2140   2.2206
     2.2417   2.2426   2.2789   2.2831   2.2837   2.3120   2.3131   2.3147
     2.3152   2.3170   2.3189   2.3207   2.3248   2.3332   2.3518   2.3528
     2.3972   2.4012   2.4022   2.4038   2.4099   2.4146   2.4223   2.4458
     2.4507   2.4548   2.4687   2.4912   2.4919   2.5118   2.5186   2.5192
     2.5305   2.5340   2.5638   2.5720   2.5764   2.5788   2.6046   2.6062
     2.6273   2.6325   2.6331   2.6515   2.6538   2.6746   2.6763   2.6780
     2.6803   2.6845   2.6950   2.6957   2.7008   2.7077   2.7150   2.7328
     2.7665   2.7706   2.7714   2.7772   2.8221   2.8226   2.8346   2.8385
     2.8664   2.8782   2.8795   2.8856   2.8862   2.8974   2.9018   2.9298
     2.9314   2.9316   2.9403   2.9409   2.9506   2.9534   2.9548   2.9557
     2.9588   2.9638   2.9644   2.9656   2.9686   2.9821   2.9835   2.9971
     2.9980   3.0082   3.0088   3.0094   3.0208   3.0363   3.0415   3.0480
     3.0487   3.0655   3.0939   3.0945   3.1076   3.1283   3.1290   3.2861
     3.2948   3.3968   3.3970   3.4971   3.4980   3.6086   3.8209   3.8259
     4.2045   4.2242   4.3064   4.3072   4.3212   4.5821   4.6870   4.7001
     4.7136   4.7140   4.8566   5.1573   5.1851   5.1864   5.6332   5.6696
     5.6969   5.7673   5.9242   5.9376   5.9391   6.0698   6.0812   6.1596
     6.2376   6.6041   6.6780   6.6828   6.8518   6.9522   6.9920   7.0611
     7.0631   7.2401   7.2777   7.3858   7.6071   7.7636   7.9002   7.9543
     8.4616   8.4911   8.4917   8.5942   8.7389   8.9945   9.1342   9.1589
     9.2172   9.3165   9.3317   9.4724   9.4891   9.6429   9.6723   9.7089
     9.7997   9.9059  10.0125  10.1192  10.1684  10.3579  10.4234  10.4552
    10.5135  10.6092  10.7132  10.8173  10.8623  11.0679  11.0792  11.1822
    11.2364  11.2555  11.4583  11.4855  11.4947  11.5964  11.6147  11.7052
    11.7181  11.8189  11.8627  11.8715  11.9968  12.0968  12.1335  12.1662
    12.2823  12.3742  12.4214  12.4422  12.5121  12.5541  12.5992  12.6266
    12.7115  12.7474  12.8252  12.8682  12.9412  13.0073  13.1550  13.2238
    13.2860  13.3109  13.3775  13.4241  13.4839  13.5313  13.5433  13.6391
    13.6734  13.6901

          k =-0.5000-0.5774 0.0000 ( 61343 PWs)   bands (ev):

  -107.8210-107.8188-107.8174-107.8165-107.8140-107.8139-107.8136-107.8129
  -107.8127-107.8121-107.8118-107.8117-107.8113-107.8106-107.8105-107.8100
  -107.8096-107.8089-107.8076-107.8070-107.8052-107.8042-107.8039-107.8035
  -107.8033-107.8024-107.8022-107.7996-107.7982-107.7975-107.7957-107.7950
  -107.7945-107.7941-107.7939-107.7926-107.5913-107.5902-107.5888-107.5870
  -107.5866-107.5864-107.5842-107.5826-107.5823-107.5603-107.5589-107.5588
  -107.5560-107.5558-107.5549-107.5549-107.5546-107.5544 -65.2718 -65.2675
   -65.2666 -65.2660 -65.2654 -65.2647 -65.2642 -65.2629 -65.2613 -65.2596
   -65.2593 -65.2583 -65.2556 -65.2539 -65.2534 -65.2530 -65.2529 -65.2504
   -65.2482 -65.2469 -65.2467 -65.2466 -65.2462 -65.2449 -65.2445 -65.2437
   -65.2429 -65.2425 -65.2401 -65.2394 -65.2355 -65.2344 -65.2340 -65.2332
   -65.2308 -65.2305 -65.2300 -65.2295 -65.2292 -65.2268 -65.2259 -65.2257
   -65.2249 -65.2242 -65.2236 -65.2231 -65.2222 -65.2200 -65.2197 -65.2194
   -65.2192 -65.2190 -65.2188 -65.2178 -65.2174 -65.2170 -65.2163 -65.2156
   -65.2152 -65.2139 -65.2137 -65.2135 -65.2133 -65.2128 -65.2112 -65.2103
   -65.2100 -65.2098 -65.2094 -65.2092 -65.2084 -65.2084 -65.2079 -65.2077
   -65.2074 -65.2065 -65.2062 -65.2055 -65.2051 -65.2046 -65.2043 -65.2032
   -65.2026 -65.2022 -65.2021 -65.2019 -65.2017 -65.2016 -65.2014 -65.2012
   -65.1995 -65.1991 -65.1988 -65.1970 -65.1966 -65.1961 -65.1958 -65.1957
   -65.1950 -65.1948 -65.1928 -65.1918 -65.1916 -65.1907 -65.1871 -65.1852
   -65.1851 -65.1814 -65.0573 -65.0561 -65.0537 -65.0471 -65.0438 -65.0424
   -65.0293 -65.0292 -65.0264 -65.0240 -65.0224 -65.0208 -65.0203 -65.0199
   -65.0162 -65.0160 -65.0158 -65.0146 -65.0140 -65.0134 -65.0074 -65.0032
   -65.0024 -64.9985 -64.9964 -64.9944 -64.9935 -64.9935 -64.9878 -64.9877
   -64.9869 -64.9868 -64.9803 -64.9757 -64.9757 -64.9716 -64.9685 -64.9674
   -64.9661 -64.9647 -64.9642 -64.9641 -64.9611 -64.9593 -64.9591 -64.9324
   -64.9311 -64.9309 -64.9283 -64.9281 -64.9273 -64.9273 -64.9270 -64.9268
   -12.7135  -9.9730  -9.9706  -6.3759  -6.3675  -4.3946  -3.4532  -2.8496
    -2.7931  -2.6472  -2.6469  -2.4685  -2.0770  -2.0752  -1.9425  -1.8741
    -1.8442  -1.2283  -1.2157  -0.8808  -0.6387  -0.6361  -0.6062  -0.2866
    -0.2855  -0.2462  -0.2198  -0.0451  -0.0450  -0.0353   0.0653   0.1044
     0.1300   0.1318   0.1496   0.1498   0.1663   0.2157   0.2274   0.2275
     0.2451   0.3438   0.3468   0.3497   0.3499   0.4204   0.4274   0.4872
     0.4885   0.4999   0.5109   0.5392   0.5393   0.5417   0.5598   0.5612
     0.6250   0.6257   0.6543   0.6549   0.6852   0.6852   0.7117   0.7201
     0.7207   0.7860   0.7862   0.8148   0.8358   0.8486   0.8490   0.9213
     0.9243   0.9749   0.9944   0.9949   1.0215   1.0219   1.0808   1.0895
     1.0905   1.1061   1.1063   1.1183   1.1582   1.1849   1.1854   1.2284
     1.2291   1.2545   1.2581   1.2599   1.2617   1.2788   1.2789   1.3359
     1.3370   1.3404   1.3412   1.3455   1.3564   1.3746   1.3760   1.3875
     1.3889   1.4153   1.4175   1.4385   1.4395   1.4411   1.4599   1.4864
     1.5266   1.5331   1.5341   1.5350   1.5360   1.5641   1.5815   1.5853
     1.5878   1.6241   1.6255   1.6263   1.6290   1.6359   1.6589   1.6792
     1.6800   1.6947   1.6948   1.7129   1.7222   1.7337   1.7345   1.7405
     1.7417   1.7591   1.7605   1.7772   1.7776   1.7934   1.8008   1.8133
     1.8242   1.8272   1.8460   1.8558   1.8609   1.8623   1.8707   1.8777
     1.8791   1.8856   1.8916   1.8920   1.9051   1.9059   1.9078   1.9090
     1.9311   1.9386   1.9546   1.9594   1.9711   1.9787   1.9852   1.9864
     1.9973   1.9977   1.9985   2.0026   2.0041   2.0069   2.0101   2.0129
     2.0429   2.0556   2.0853   2.0944   2.1406   2.1413   2.1431   2.1481
     2.1535   2.1585   2.1755   2.1757   2.1993   2.2113   2.2140   2.2206
     2.2417   2.2426   2.2789   2.2831   2.2837   2.3120   2.3131   2.3147
     2.3152   2.3170   2.3189   2.3207   2.3248   2.3332   2.3518   2.3528
     2.3972   2.4012   2.4022   2.4038   2.4099   2.4146   2.4223   2.4458
     2.4507   2.4548   2.4687   2.4912   2.4919   2.5118   2.5186   2.5192
     2.5305   2.5340   2.5638   2.5720   2.5764   2.5788   2.6046   2.6062
     2.6273   2.6325   2.6331   2.6515   2.6539   2.6746   2.6763   2.6780
     2.6803   2.6845   2.6950   2.6957   2.7008   2.7077   2.7150   2.7328
     2.7665   2.7706   2.7714   2.7772   2.8221   2.8226   2.8346   2.8385
     2.8664   2.8782   2.8795   2.8856   2.8862   2.8974   2.9017   2.9298
     2.9314   2.9316   2.9403   2.9409   2.9506   2.9534   2.9548   2.9557
     2.9588   2.9638   2.9644   2.9656   2.9686   2.9821   2.9835   2.9971
     2.9980   3.0082   3.0088   3.0094   3.0208   3.0363   3.0415   3.0480
     3.0487   3.0655   3.0939   3.0945   3.1076   3.1283   3.1290   3.2861
     3.2948   3.3968   3.3970   3.4971   3.4980   3.6086   3.8209   3.8259
     4.2045   4.2242   4.3064   4.3072   4.3212   4.5821   4.6870   4.7001
     4.7136   4.7140   4.8566   5.1573   5.1851   5.1864   5.6332   5.6696
     5.6969   5.7672   5.9242   5.9376   5.9391   6.0698   6.0812   6.1596
     6.2376   6.6041   6.6780   6.6828   6.8517   6.9522   6.9920   7.0611
     7.0632   7.2402   7.2776   7.3858   7.6071   7.7635   7.9002   7.9544
     8.4615   8.4911   8.4917   8.5942   8.7389   8.9945   9.1341   9.1589
     9.2172   9.3164   9.3317   9.4724   9.4891   9.6429   9.6723   9.7089
     9.7997   9.9059  10.0125  10.1192  10.1684  10.3579  10.4234  10.4552
    10.5135  10.6092  10.7132  10.8173  10.8623  11.0679  11.0792  11.1822
    11.2364  11.2555  11.4583  11.4855  11.4947  11.5965  11.6146  11.7051
    11.7181  11.8189  11.8627  11.8715  11.9968  12.0968  12.1335  12.1662
    12.2825  12.3742  12.4215  12.4422  12.5121  12.5541  12.5992  12.6266
    12.7115  12.7474  12.8252  12.8681  12.9412  13.0073  13.1550  13.2237
    13.2860  13.3109  13.3775  13.4241  13.4839  13.5315  13.5433  13.6391
    13.6735  13.6901

     the Fermi energy is     4.6262 ev

!    total energy              =  -21903.76790393 Ry
     Harris-Foulkes estimate   =  -21903.76790398 Ry
     estimated scf accuracy    <          1.8E-09 Ry

     The total energy is the sum of the following terms:

     one-electron contribution = -207392.50695988 Ry
     hartree contribution      =  103899.44831913 Ry
     xc contribution           =   -2143.20120817 Ry
     ewald contribution        =   83732.54460084 Ry
     smearing contrib. (-TS)   =      -0.05265584 Ry

     convergence has been achieved in  38 iterations
 
     init_run     :    105.30s CPU    108.24s WALL (       1 calls)
     electrons    :  18757.19s CPU  19090.30s WALL (       1 calls)

     Called by init_run:
     wfcinit      :     95.28s CPU     97.27s WALL (       1 calls)
     potinit      :      6.75s CPU      7.08s WALL (       1 calls)
     hinit0       :      1.58s CPU      1.61s WALL (       1 calls)

     Called by electrons:
     c_bands      :  17211.00s CPU  17476.15s WALL (      38 calls)
     sum_band     :   1262.58s CPU   1302.08s WALL (      38 calls)
     v_of_rho     :    236.51s CPU    245.50s WALL (      39 calls)
     newd         :     42.76s CPU     62.73s WALL (      39 calls)
     mix_rho      :      6.85s CPU      7.05s WALL (      38 calls)

     Called by c_bands:
     init_us_2    :     15.45s CPU     16.18s WALL (     770 calls)
     cegterg      :  17092.09s CPU  17350.09s WALL (     380 calls)

     Called by sum_band:
     sum_band:bec :      2.88s CPU      2.89s WALL (     380 calls)
     addusdens    :     37.00s CPU     61.31s WALL (      38 calls)

     Called by *egterg:
     h_psi        :   6023.54s CPU   6110.99s WALL (    1987 calls)
     s_psi        :    380.28s CPU    380.82s WALL (    1987 calls)
     g_psi        :      6.21s CPU      6.23s WALL (    1597 calls)
     cdiaghg      :   8108.45s CPU   8180.46s WALL (    1977 calls)

     Called by h_psi:
     h_psi:pot    :   6013.54s CPU   6082.50s WALL (    1987 calls)
     h_psi:calbec :    630.84s CPU    635.44s WALL (    1987 calls)
     vloc_psi     :   5000.95s CPU   5063.95s WALL (    1987 calls)
     add_vuspsi   :    381.71s CPU    383.09s WALL (    1987 calls)

     General routines
     calbec       :    842.15s CPU    847.29s WALL (    2367 calls)
     fft          :    210.59s CPU    212.27s WALL (    2456 calls)
     ffts         :      1.15s CPU      1.18s WALL (      77 calls)
     fftw         :   5740.44s CPU   5810.72s WALL ( 1514146 calls)
     interpolate  :      3.62s CPU      3.66s WALL (      39 calls)
 
     Parallel routines
     fft_scatt_xy :    241.67s CPU    244.32s WALL ( 1516679 calls)
     fft_scatt_yz :   4806.71s CPU   4863.45s WALL ( 1516679 calls)
 
     PWSCF        :     5h14m CPU       14h 5m WALL

      19h
 
   This run was terminated on:   0:31:31  21Nov2019            

=------------------------------------------------------------------------------=
   JOB DONE.
=------------------------------------------------------------------------------=
