
     Program PWSCF v.6.3MaX starts on 22Nov2019 at 17:18:52 

     This program is part of the open-source Quantum ESPRESSO suite
     for quantum simulation of materials; please cite
         "P. Giannozzi et al., J. Phys.:Condens. Matter 21 395502 (2009);
         "P. Giannozzi et al., J. Phys.:Condens. Matter 29 465901 (2017);
          URL http://www.quantum-espresso.org", 
     in publications or presentations arising from this work. More details at
     http://www.quantum-espresso.org/quote

     Parallel version (MPI), running on    16 processors

     MPI processes distributed on     2 nodes
     R & G space division:  proc/nbgrp/npool/nimage =      16
     Waiting for input...
     Reading input from standard input

     Current dimensions of program PWSCF are:
     Max number of different atomic species (ntypx) = 10
     Max number of k-points (npk) =  40000
     Max angular momentum in pseudopotentials (lmaxx) =  3
     Message from routine iosys:
     minimal I/O required, wf_collect reset to FALSE

     IMPORTANT: XC functional enforced from input :
     Exchange-correlation      = VDW-DF ( 1  4  4  0 1 0)
     Any further DFT definition will be discarded
     Please, verify this is what you really want


     Subspace diagonalization in iterative solution of the eigenvalue problem:
     one sub-group per band group will be used
     scalapack distributed-memory algorithm (size of sub-group:  2*  2 procs)

 
     Parallelization info
     --------------------
     sticks:   dense  smooth     PW     G-vecs:    dense   smooth      PW
     Min         565     189     51               159513    30701    4383
     Max         566     190     52               159526    30710    4400
     Sum        9055    3037    823              2552337   491295   70261
 


     bravais-lattice index     =            0
     lattice parameter (alat)  =      14.8058  a.u.
     unit-cell volume          =   10282.4791 (a.u.)^3
     number of atoms/cell      =           66
     number of atomic types    =            3
     number of electrons       =      1056.00
     number of Kohn-Sham states=          634
     kinetic-energy cutoff     =      50.0000  Ry
     charge density cutoff     =     600.0000  Ry
     convergence threshold     =      1.0E-08
     mixing beta               =       0.3000
     number of iterations used =            8  plain     mixing
     Exchange-correlation      = VDW-DF ( 1  4  4  0 1 0)

     celldm(1)=  14.805786  celldm(2)=   0.000000  celldm(3)=   0.000000
     celldm(4)=   0.000000  celldm(5)=   0.000000  celldm(6)=   0.000000

     crystal axes: (cart. coord. in units of alat)
               a(1) = (   1.000000   0.000000   0.000000 )  
               a(2) = (   0.500000   0.866025   0.000000 )  
               a(3) = (   0.000000   0.000000   3.658245 )  

     reciprocal axes: (cart. coord. in units 2 pi/alat)
               b(1) = (  1.000000 -0.577350  0.000000 )  
               b(2) = (  0.000000  1.154701  0.000000 )  
               b(3) = (  0.000000  0.000000  0.273355 )  


     PseudoPot. # 1 for Cu read from file:
     /deac/thonhauserGrp/chakrad/calculations/atomandmolecule-qe6.2.1-i2012-C6modif/all_pbe_UPF_v1.5/cu_pbe_v1.2.uspp.F.UPF
     MD5 check sum: 6e991ff952a84172a2a52a1c1e996048
     Pseudo is Ultrasoft + core correction, Zval = 19.0
     Generated by new atomic code, or converted to UPF format
     Using radial grid of  867 points,  6 beta functions with: 
                l(1) =   0
                l(2) =   0
                l(3) =   1
                l(4) =   1
                l(5) =   2
                l(6) =   2
     Q(r) pseudized with  8 coefficients,  rinner =    1.150   1.150   1.150
                                                       1.150   1.150

     PseudoPot. # 2 for C  read from file:
     /deac/thonhauserGrp/chakrad/calculations/atomandmolecule-qe6.2.1-i2012-C6modif/all_pbe_UPF_v1.5/c_pbe_v1.2.uspp.F.UPF
     MD5 check sum: d1aef80898a10debaa0f26306b886e00
     Pseudo is Ultrasoft + core correction, Zval =  4.0
     Generated by new atomic code, or converted to UPF format
     Using radial grid of  721 points,  4 beta functions with: 
                l(1) =   0
                l(2) =   0
                l(3) =   1
                l(4) =   1
     Q(r) pseudized with  8 coefficients,  rinner =    1.100   1.100   1.100


     PseudoPot. # 3 for H  read from file:
     /deac/thonhauserGrp/chakrad/calculations/atomandmolecule-qe6.2.1-i2012-C6modif/all_pbe_UPF_v1.5/h_pbe_v1.4.uspp.F.UPF
     MD5 check sum: 761ae9a214b05c3daf00ab9f6b793d6f
     Pseudo is Ultrasoft, Zval =  1.0
     Generated by new atomic code, or converted to UPF format
     Using radial grid of  615 points,  2 beta functions with: 
                l(1) =   0
                l(2) =   0
     Q(r) pseudized with  8 coefficients,  rinner =    0.700

     vdW kernel table read from file vdW_kernel_table
     MD5 check sum: cc9485f6209b1096fbef62427c856dab

     atomic species   valence    mass     pseudopotential
        Cu            19.00     1.00000     Cu( 1.00)
        C              4.00     1.00000     C ( 1.00)
        H              1.00     1.00000     H ( 1.00)

     No symmetry found



   Cartesian axes

     site n.     atom                  positions (alat units)
         1           Cu  tau(   1) = (   0.1666667   0.0962250   0.2552686  )
         2           Cu  tau(   2) = (   0.5000000   0.0962250   0.2552686  )
         3           Cu  tau(   3) = (   0.8333333   0.0962250   0.2552686  )
         4           Cu  tau(   4) = (   0.3333333   0.3849002   0.2552686  )
         5           Cu  tau(   5) = (   0.6666667   0.3849002   0.2552686  )
         6           Cu  tau(   6) = (   1.0000000   0.3849002   0.2552686  )
         7           Cu  tau(   7) = (   0.5000000   0.6735753   0.2552686  )
         8           Cu  tau(   8) = (   0.8333333   0.6735753   0.2552686  )
         9           Cu  tau(   9) = (   1.1666667   0.6735753   0.2552686  )
        10           Cu  tau(  10) = (   0.0000000   0.1924501   0.5274341  )
        11           Cu  tau(  11) = (   0.3333333   0.1924501   0.5274341  )
        12           Cu  tau(  12) = (   0.6666667   0.1924501   0.5274341  )
        13           Cu  tau(  13) = (   0.1666667   0.4811252   0.5274341  )
        14           Cu  tau(  14) = (   0.5000000   0.4811252   0.5274341  )
        15           Cu  tau(  15) = (   0.8333333   0.4811252   0.5274341  )
        16           Cu  tau(  16) = (   0.3333333   0.7698004   0.5274341  )
        17           Cu  tau(  17) = (   0.6666667   0.7698004   0.5274341  )
        18           Cu  tau(  18) = (   1.0000000   0.7698004   0.5274341  )
        19           Cu  tau(  19) = (   0.0000000   0.0000000   0.7995997  )
        20           Cu  tau(  20) = (   0.3333333   0.0000000   0.7995997  )
        21           Cu  tau(  21) = (   0.6666667   0.0000000   0.7995997  )
        22           Cu  tau(  22) = (   0.1666667   0.2886751   0.7995997  )
        23           Cu  tau(  23) = (   0.5000000   0.2886751   0.7995997  )
        24           Cu  tau(  24) = (   0.8333333   0.2886751   0.7995997  )
        25           Cu  tau(  25) = (   0.3333333   0.5773503   0.7995997  )
        26           Cu  tau(  26) = (   0.6666667   0.5773503   0.7995997  )
        27           Cu  tau(  27) = (   1.0000000   0.5773503   0.7995997  )
        28           Cu  tau(  28) = (   0.1666659   0.0962246   1.0691130  )
        29           Cu  tau(  29) = (   0.5000000   0.0962241   1.0691104  )
        30           Cu  tau(  30) = (   0.8333341   0.0962246   1.0691130  )
        31           Cu  tau(  31) = (   0.3333325   0.3849006   1.0691104  )
        32           Cu  tau(  32) = (   0.6666675   0.3849006   1.0691104  )
        33           Cu  tau(  33) = (   1.0000000   0.3849003   1.0691143  )
        34           Cu  tau(  34) = (   0.5000000   0.6735762   1.0691130  )
        35           Cu  tau(  35) = (   0.8333334   0.6735753   1.0691143  )
        36           Cu  tau(  36) = (   1.1666666   0.6735753   1.0691143  )
        37           Cu  tau(  37) = (   0.0000000   0.1924486   1.3387540  )
        38           Cu  tau(  38) = (   0.3333330   0.1924499   1.3387465  )
        39           Cu  tau(  39) = (   0.6666670   0.1924499   1.3387465  )
        40           Cu  tau(  40) = (   0.1666676   0.4811247   1.3387504  )
        41           Cu  tau(  41) = (   0.5000000   0.4811256   1.3387465  )
        42           Cu  tau(  42) = (   0.8333324   0.4811247   1.3387504  )
        43           Cu  tau(  43) = (   0.3333346   0.7698011   1.3387540  )
        44           Cu  tau(  44) = (   0.6666654   0.7698011   1.3387540  )
        45           Cu  tau(  45) = (   1.0000000   0.7698014   1.3387504  )
        46           Cu  tau(  46) = (   0.0000000   0.0000000   1.6083750  )
        47           Cu  tau(  47) = (   0.3333333   0.0000005   1.6083624  )
        48           Cu  tau(  48) = (   0.6666667   0.0000005   1.6083624  )
        49           Cu  tau(  49) = (   0.1666671   0.2886748   1.6083624  )
        50           Cu  tau(  50) = (   0.5000000   0.2886751   1.6083553  )
        51           Cu  tau(  51) = (   0.8333329   0.2886748   1.6083624  )
        52           Cu  tau(  52) = (   0.3333338   0.5773500   1.6083624  )
        53           Cu  tau(  53) = (   0.6666662   0.5773500   1.6083624  )
        54           Cu  tau(  54) = (   1.0000000   0.5773503   1.6083570  )
        55           C   tau(  55) = (   0.6567407   0.3959883   1.9848391  )
        56           C   tau(  56) = (   0.5046394   0.3028152   1.9848390  )
        57           C   tau(  57) = (   0.3478975   0.3879497   1.9848391  )
        58           C   tau(  58) = (   0.3432593   0.5662630   1.9848391  )
        59           C   tau(  59) = (   0.4953606   0.6594361   1.9848390  )
        60           C   tau(  60) = (   0.6521025   0.5743016   1.9848391  )
        61           H   tau(  61) = (   0.7789959   0.3295665   1.9849173  )
        62           H   tau(  62) = (   0.5082587   0.1637263   1.9849174  )
        63           H   tau(  63) = (   0.2292624   0.3152577   1.9849173  )
        64           H   tau(  64) = (   0.2210041   0.6326847   1.9849173  )
        65           H   tau(  65) = (   0.4917413   0.7985249   1.9849174  )
        66           H   tau(  66) = (   0.7707376   0.6469936   1.9849173  )

     number of k points=    10  gaussian smearing, width (Ry)=  0.0200
                       cart. coord. in units 2pi/alat
        k(    1) = (   0.0000000   0.0000000   0.0000000), wk =   0.1250000
        k(    2) = (   0.0000000   0.2886751   0.0000000), wk =   0.2500000
        k(    3) = (   0.0000000  -0.5773503   0.0000000), wk =   0.1250000
        k(    4) = (   0.2500000  -0.7216878   0.0000000), wk =   0.2500000
        k(    5) = (  -0.2500000   0.1443376   0.0000000), wk =   0.2500000
        k(    6) = (   0.2500000   0.1443376   0.0000000), wk =   0.2500000
        k(    7) = (   0.5000000  -0.2886751   0.0000000), wk =   0.1250000
        k(    8) = (  -0.5000000  -0.2886751   0.0000000), wk =   0.1250000
        k(    9) = (  -0.2500000  -0.7216878   0.0000000), wk =   0.2500000
        k(   10) = (  -0.5000000  -0.5773503   0.0000000), wk =   0.2500000

     Dense  grid:  2552337 G-vectors     FFT dimensions: ( 120, 120, 432)

     Smooth grid:   491295 G-vectors     FFT dimensions: (  72,  72, 243)

     Estimated max dynamical RAM per process >       1.14 GB

     Estimated total dynamical RAM >      18.26 GB

     Initial potential from superposition of free atoms
     Check: negative starting charge=   -0.000806

     starting charge 1001.99960, renormalised to 1056.00000

     negative rho (up, down):  8.494E-04 0.000E+00


     %%%%%%%%%%%%%%%%%%%%%%%%%%%%%%%%%%%%%%%%%%%%%%%%%%%%%%%%%%%%%%%%%%%%%%%%
     %                                                                      %
     % You are using vdW-DF, which was implemented by the Thonhauser group. %
     % Please cite the following two papers that made this development      %
     % possible and the two reviews that describe the various versions:     %
     %                                                                      %
     %   T. Thonhauser et al., PRL 115, 136402 (2015).                      %
     %   T. Thonhauser et al., PRB 76, 125112 (2007).                       %
     %   K. Berland et al., Rep. Prog. Phys. 78, 066501 (2015).             %
     %   D.C. Langreth et al., J. Phys.: Condens. Matter 21, 084203 (2009). %
     %                                                                      %
     %                                                                      %
     % If you are calculating the stress with vdW-DF, please also cite:     %
     %                                                                      %
     %   R. Sabatini et al., J. Phys.: Condens. Matter 24, 424209 (2012).   %
     %                                                                      %
     %%%%%%%%%%%%%%%%%%%%%%%%%%%%%%%%%%%%%%%%%%%%%%%%%%%%%%%%%%%%%%%%%%%%%%%%


     Starting wfcs are  732 randomized atomic wfcs

     total cpu time spent up to now is       75.0 secs

     Self-consistent Calculation

     iteration #  1     ecut=    50.00 Ry     beta= 0.30
     Davidson diagonalization with overlap
     ethr =  1.00E-02,  avg # of iterations =  6.1

     negative rho (up, down):  5.125E-04 0.000E+00

     total cpu time spent up to now is     1422.6 secs

     total energy              =  -18825.90710977 Ry
     Harris-Foulkes estimate   =  -22011.09952821 Ry
     estimated scf accuracy    <    6294.60430459 Ry

     iteration #  2     ecut=    50.00 Ry     beta= 0.30
     Davidson diagonalization with overlap
     c_bands:  1 eigenvalues not converged
     ethr =  1.00E-02,  avg # of iterations = 18.5

     negative rho (up, down):  5.574E-04 0.000E+00

     total cpu time spent up to now is     4143.5 secs

     total energy              =  -19238.47523397 Ry
     Harris-Foulkes estimate   =  -39196.26871325 Ry
     estimated scf accuracy    <  279236.95947003 Ry

     iteration #  3     ecut=    50.00 Ry     beta= 0.30
     Davidson diagonalization with overlap
     ethr =  1.00E-02,  avg # of iterations =  7.1

     negative rho (up, down):  6.314E-04 0.000E+00

     total cpu time spent up to now is     5575.7 secs

     total energy              =  -21483.77791611 Ry
     Harris-Foulkes estimate   =  -23518.01196514 Ry
     estimated scf accuracy    <   59512.72024920 Ry

     iteration #  4     ecut=    50.00 Ry     beta= 0.30
     Davidson diagonalization with overlap
     ethr =  1.00E-02,  avg # of iterations =  8.2

     negative rho (up, down):  7.500E-04 0.000E+00

     total cpu time spent up to now is     7434.4 secs

     total energy              =  -21641.52359731 Ry
     Harris-Foulkes estimate   =  -22140.20279139 Ry
     estimated scf accuracy    <   15826.57369344 Ry

     iteration #  5     ecut=    50.00 Ry     beta= 0.30
     Davidson diagonalization with overlap
     ethr =  1.00E-02,  avg # of iterations =  6.3

     negative rho (up, down):  8.116E-04 0.000E+00

     total cpu time spent up to now is     8786.6 secs

     total energy              =  -21804.63627510 Ry
     Harris-Foulkes estimate   =  -22244.02672986 Ry
     estimated scf accuracy    <    9103.99576896 Ry

     iteration #  6     ecut=    50.00 Ry     beta= 0.30
     Davidson diagonalization with overlap
     ethr =  1.00E-02,  avg # of iterations =  6.7

     negative rho (up, down):  9.584E-04 0.000E+00

     total cpu time spent up to now is     9840.7 secs

     total energy              =  -21903.70595502 Ry
     Harris-Foulkes estimate   =  -21973.21876924 Ry
     estimated scf accuracy    <    2578.23070792 Ry

     iteration #  7     ecut=    50.00 Ry     beta= 0.30
     Davidson diagonalization with overlap
     ethr =  1.00E-02,  avg # of iterations =  3.0

     negative rho (up, down):  1.128E-03 0.000E+00

     total cpu time spent up to now is    10082.0 secs

     total energy              =  -21915.11903099 Ry
     Harris-Foulkes estimate   =  -21940.80811298 Ry
     estimated scf accuracy    <     310.39754351 Ry

     iteration #  8     ecut=    50.00 Ry     beta= 0.30
     Davidson diagonalization with overlap
     ethr =  1.00E-02,  avg # of iterations =  2.0

     negative rho (up, down):  1.250E-03 0.000E+00

     total cpu time spent up to now is    10284.4 secs

     total energy              =  -21917.32773220 Ry
     Harris-Foulkes estimate   =  -21922.84585909 Ry
     estimated scf accuracy    <     179.40019309 Ry

     iteration #  9     ecut=    50.00 Ry     beta= 0.30
     Davidson diagonalization with overlap
     ethr =  1.00E-02,  avg # of iterations =  1.1

     negative rho (up, down):  1.379E-03 0.000E+00

     total cpu time spent up to now is    10453.3 secs

     total energy              =  -21913.50862264 Ry
     Harris-Foulkes estimate   =  -21918.85549595 Ry
     estimated scf accuracy    <      78.49317964 Ry

     iteration # 10     ecut=    50.00 Ry     beta= 0.30
     Davidson diagonalization with overlap
     ethr =  7.43E-03,  avg # of iterations =  2.0

     negative rho (up, down):  1.677E-03 0.000E+00

     total cpu time spent up to now is    10652.2 secs

     total energy              =  -21888.68994433 Ry
     Harris-Foulkes estimate   =  -21915.07862770 Ry
     estimated scf accuracy    <     159.84195116 Ry

     iteration # 11     ecut=    50.00 Ry     beta= 0.30
     Davidson diagonalization with overlap
     ethr =  7.43E-03,  avg # of iterations =  3.6

     negative rho (up, down):  3.666E-04 0.000E+00

     total cpu time spent up to now is    11046.2 secs

     total energy              =  -21892.40446676 Ry
     Harris-Foulkes estimate   =  -21937.96137707 Ry
     estimated scf accuracy    <    1492.45363998 Ry

     iteration # 12     ecut=    50.00 Ry     beta= 0.30
     Davidson diagonalization with overlap
     ethr =  7.43E-03,  avg # of iterations =  2.0

     negative rho (up, down):  3.758E-04 0.000E+00

     total cpu time spent up to now is    11247.6 secs

     total energy              =  -21900.09110306 Ry
     Harris-Foulkes estimate   =  -21912.21906262 Ry
     estimated scf accuracy    <     205.70828622 Ry

     iteration # 13     ecut=    50.00 Ry     beta= 0.30
     Davidson diagonalization with overlap
     ethr =  7.43E-03,  avg # of iterations =  1.7

     negative rho (up, down):  4.524E-04 0.000E+00

     total cpu time spent up to now is    11437.0 secs

     total energy              =  -21899.61351396 Ry
     Harris-Foulkes estimate   =  -21905.94940522 Ry
     estimated scf accuracy    <      25.71484803 Ry

     iteration # 14     ecut=    50.00 Ry     beta= 0.30
     Davidson diagonalization with overlap
     ethr =  2.44E-03,  avg # of iterations =  4.0

     negative rho (up, down):  5.114E-04 0.000E+00

     total cpu time spent up to now is    11767.9 secs

     total energy              =  -21902.84963293 Ry
     Harris-Foulkes estimate   =  -21905.03462868 Ry
     estimated scf accuracy    <      24.43359330 Ry

     iteration # 15     ecut=    50.00 Ry     beta= 0.30
     Davidson diagonalization with overlap
     ethr =  2.31E-03,  avg # of iterations =  1.7

     negative rho (up, down):  5.359E-04 0.000E+00

     total cpu time spent up to now is    11962.7 secs

     total energy              =  -21903.30667041 Ry
     Harris-Foulkes estimate   =  -21904.44884609 Ry
     estimated scf accuracy    <      10.80286085 Ry

     iteration # 16     ecut=    50.00 Ry     beta= 0.30
     Davidson diagonalization with overlap
     ethr =  1.02E-03,  avg # of iterations =  2.5

     negative rho (up, down):  5.900E-04 0.000E+00

     total cpu time spent up to now is    12184.1 secs

     total energy              =  -21903.77922936 Ry
     Harris-Foulkes estimate   =  -21904.03244522 Ry
     estimated scf accuracy    <       1.76657172 Ry

     iteration # 17     ecut=    50.00 Ry     beta= 0.30
     Davidson diagonalization with overlap
     ethr =  1.67E-04,  avg # of iterations =  6.2

     negative rho (up, down):  7.310E-04 0.000E+00

     total cpu time spent up to now is    12559.1 secs

     total energy              =  -21903.68310927 Ry
     Harris-Foulkes estimate   =  -21903.89634836 Ry
     estimated scf accuracy    <       2.43063061 Ry

     iteration # 18     ecut=    50.00 Ry     beta= 0.30
     Davidson diagonalization with overlap
     ethr =  1.67E-04,  avg # of iterations =  6.7

     negative rho (up, down):  7.773E-04 0.000E+00

     total cpu time spent up to now is    12934.3 secs

     total energy              =  -21903.72261168 Ry
     Harris-Foulkes estimate   =  -21903.82257762 Ry
     estimated scf accuracy    <       0.99505625 Ry

     iteration # 19     ecut=    50.00 Ry     beta= 0.30
     Davidson diagonalization with overlap
     ethr =  9.42E-05,  avg # of iterations =  6.5

     negative rho (up, down):  1.008E-03 0.000E+00

     total cpu time spent up to now is    13305.2 secs

     total energy              =  -21903.74556528 Ry
     Harris-Foulkes estimate   =  -21903.79569190 Ry
     estimated scf accuracy    <       0.79277236 Ry

     iteration # 20     ecut=    50.00 Ry     beta= 0.30
     Davidson diagonalization with overlap
     ethr =  7.51E-05,  avg # of iterations =  5.9

     negative rho (up, down):  1.594E-03 0.000E+00

     total cpu time spent up to now is    13640.5 secs

     total energy              =  -21903.73657752 Ry
     Harris-Foulkes estimate   =  -21903.76479299 Ry
     estimated scf accuracy    <       0.09121494 Ry

     iteration # 21     ecut=    50.00 Ry     beta= 0.30
     Davidson diagonalization with overlap
     ethr =  8.64E-06,  avg # of iterations =  6.6

     negative rho (up, down):  1.438E-03 0.000E+00

     total cpu time spent up to now is    14180.0 secs

     total energy              =  -21903.73933738 Ry
     Harris-Foulkes estimate   =  -21903.76833014 Ry
     estimated scf accuracy    <       0.32132160 Ry

     iteration # 22     ecut=    50.00 Ry     beta= 0.30
     Davidson diagonalization with overlap
     ethr =  8.64E-06,  avg # of iterations =  5.4

     negative rho (up, down):  1.393E-03 0.000E+00

     total cpu time spent up to now is    14511.6 secs

     total energy              =  -21903.75073496 Ry
     Harris-Foulkes estimate   =  -21903.75556401 Ry
     estimated scf accuracy    <       0.02929806 Ry

     iteration # 23     ecut=    50.00 Ry     beta= 0.30
     Davidson diagonalization with overlap
     ethr =  2.77E-06,  avg # of iterations =  4.9

     negative rho (up, down):  1.548E-03 0.000E+00

     total cpu time spent up to now is    14815.3 secs

     total energy              =  -21903.75291270 Ry
     Harris-Foulkes estimate   =  -21903.75398470 Ry
     estimated scf accuracy    <       0.00465067 Ry

     iteration # 24     ecut=    50.00 Ry     beta= 0.30
     Davidson diagonalization with overlap
     ethr =  4.40E-07,  avg # of iterations =  5.6

     negative rho (up, down):  1.749E-03 0.000E+00

     total cpu time spent up to now is    15166.9 secs

     total energy              =  -21903.75320194 Ry
     Harris-Foulkes estimate   =  -21903.75373220 Ry
     estimated scf accuracy    <       0.00526038 Ry

     iteration # 25     ecut=    50.00 Ry     beta= 0.30
     Davidson diagonalization with overlap
     ethr =  4.40E-07,  avg # of iterations =  3.6

     negative rho (up, down):  1.968E-03 0.000E+00

     total cpu time spent up to now is    15434.3 secs

     total energy              =  -21903.75344497 Ry
     Harris-Foulkes estimate   =  -21903.75350243 Ry
     estimated scf accuracy    <       0.00048897 Ry

     iteration # 26     ecut=    50.00 Ry     beta= 0.30
     Davidson diagonalization with overlap
     ethr =  4.63E-08,  avg # of iterations =  6.8

     negative rho (up, down):  2.121E-03 0.000E+00

     total cpu time spent up to now is    15825.3 secs

     total energy              =  -21903.75344758 Ry
     Harris-Foulkes estimate   =  -21903.75359196 Ry
     estimated scf accuracy    <       0.00190622 Ry

     iteration # 27     ecut=    50.00 Ry     beta= 0.30
     Davidson diagonalization with overlap
     ethr =  4.63E-08,  avg # of iterations =  2.6

     negative rho (up, down):  2.245E-03 0.000E+00

     total cpu time spent up to now is    16045.6 secs

     total energy              =  -21903.75353169 Ry
     Harris-Foulkes estimate   =  -21903.75355307 Ry
     estimated scf accuracy    <       0.00027572 Ry

     iteration # 28     ecut=    50.00 Ry     beta= 0.30
     Davidson diagonalization with overlap
     ethr =  2.61E-08,  avg # of iterations =  3.5

     negative rho (up, down):  2.340E-03 0.000E+00

     total cpu time spent up to now is    16291.5 secs

     total energy              =  -21903.75354485 Ry
     Harris-Foulkes estimate   =  -21903.75356333 Ry
     estimated scf accuracy    <       0.00040618 Ry

     iteration # 29     ecut=    50.00 Ry     beta= 0.30
     Davidson diagonalization with overlap
     ethr =  2.61E-08,  avg # of iterations =  2.0

     negative rho (up, down):  2.427E-03 0.000E+00

     total cpu time spent up to now is    16488.5 secs

     total energy              =  -21903.75355860 Ry
     Harris-Foulkes estimate   =  -21903.75356696 Ry
     estimated scf accuracy    <       0.00016336 Ry

     iteration # 30     ecut=    50.00 Ry     beta= 0.30
     Davidson diagonalization with overlap
     ethr =  1.55E-08,  avg # of iterations =  1.2

     negative rho (up, down):  2.514E-03 0.000E+00

     total cpu time spent up to now is    16660.3 secs

     total energy              =  -21903.75356634 Ry
     Harris-Foulkes estimate   =  -21903.75356606 Ry
     estimated scf accuracy    <       0.00001567 Ry

     iteration # 31     ecut=    50.00 Ry     beta= 0.30
     Davidson diagonalization with overlap
     ethr =  1.48E-09,  avg # of iterations =  3.5

     negative rho (up, down):  2.565E-03 0.000E+00

     total cpu time spent up to now is    16906.8 secs

     total energy              =  -21903.75356771 Ry
     Harris-Foulkes estimate   =  -21903.75356757 Ry
     estimated scf accuracy    <       0.00000178 Ry

     iteration # 32     ecut=    50.00 Ry     beta= 0.30
     Davidson diagonalization with overlap
     ethr =  1.69E-10,  avg # of iterations =  2.0

     negative rho (up, down):  2.581E-03 0.000E+00

     total cpu time spent up to now is    17163.2 secs

     total energy              =  -21903.75356794 Ry
     Harris-Foulkes estimate   =  -21903.75356820 Ry
     estimated scf accuracy    <       0.00000159 Ry

     iteration # 33     ecut=    50.00 Ry     beta= 0.30
     Davidson diagonalization with overlap
     ethr =  1.50E-10,  avg # of iterations =  2.0

     negative rho (up, down):  2.605E-03 0.000E+00

     total cpu time spent up to now is    17361.3 secs

     total energy              =  -21903.75356804 Ry
     Harris-Foulkes estimate   =  -21903.75356814 Ry
     estimated scf accuracy    <       0.00000069 Ry

     iteration # 34     ecut=    50.00 Ry     beta= 0.30
     Davidson diagonalization with overlap
     ethr =  6.50E-11,  avg # of iterations =  2.0

     negative rho (up, down):  2.616E-03 0.000E+00

     total cpu time spent up to now is    17569.1 secs

     total energy              =  -21903.75356802 Ry
     Harris-Foulkes estimate   =  -21903.75356812 Ry
     estimated scf accuracy    <       0.00000040 Ry

     iteration # 35     ecut=    50.00 Ry     beta= 0.30
     Davidson diagonalization with overlap
     ethr =  3.76E-11,  avg # of iterations =  2.0

     negative rho (up, down):  2.619E-03 0.000E+00

     total cpu time spent up to now is    17772.3 secs

     total energy              =  -21903.75356802 Ry
     Harris-Foulkes estimate   =  -21903.75356806 Ry
     estimated scf accuracy    <       0.00000018 Ry

     iteration # 36     ecut=    50.00 Ry     beta= 0.30
     Davidson diagonalization with overlap
     ethr =  1.75E-11,  avg # of iterations =  2.0

     negative rho (up, down):  2.624E-03 0.000E+00

     total cpu time spent up to now is    17975.7 secs

     total energy              =  -21903.75356798 Ry
     Harris-Foulkes estimate   =  -21903.75356804 Ry
     estimated scf accuracy    <       0.00000009 Ry

     iteration # 37     ecut=    50.00 Ry     beta= 0.30
     Davidson diagonalization with overlap
     ethr =  8.49E-12,  avg # of iterations =  2.0

     negative rho (up, down):  2.626E-03 0.000E+00

     total cpu time spent up to now is    18181.8 secs

     total energy              =  -21903.75356797 Ry
     Harris-Foulkes estimate   =  -21903.75356799 Ry
     estimated scf accuracy    <       0.00000004 Ry

     iteration # 38     ecut=    50.00 Ry     beta= 0.30
     Davidson diagonalization with overlap
     ethr =  3.75E-12,  avg # of iterations =  2.0

     negative rho (up, down):  2.630E-03 0.000E+00

     total cpu time spent up to now is    18388.3 secs

     End of self-consistent calculation

          k = 0.0000 0.0000 0.0000 ( 61453 PWs)   bands (ev):

  -107.7271-107.7198-107.7149-107.7149-107.7139-107.7136-107.7132-107.7132
  -107.7118-107.7108-107.7108-107.7101-107.7101-107.7096-107.7093-107.7093
  -107.7087-107.7079-107.7061-107.7061-107.7054-107.7036-107.7036-107.7017
  -107.7001-107.6996-107.6996-107.6967-107.6947-107.6947-107.6946-107.6946
  -107.6932-107.6923-107.6916-107.6891-107.5451-107.5424-107.5424-107.5170
  -107.5145-107.5145-107.4993-107.4969-107.4969-107.4600-107.4553-107.4553
  -107.4552-107.4544-107.4544-107.4543-107.4521-107.4521 -65.1757 -65.1659
   -65.1617 -65.1617 -65.1610 -65.1610 -65.1599 -65.1552 -65.1551 -65.1551
   -65.1534 -65.1534 -65.1526 -65.1521 -65.1521 -65.1502 -65.1496 -65.1496
   -65.1491 -65.1484 -65.1444 -65.1444 -65.1423 -65.1407 -65.1403 -65.1403
   -65.1390 -65.1390 -65.1389 -65.1380 -65.1379 -65.1368 -65.1368 -65.1360
   -65.1353 -65.1341 -65.1341 -65.1337 -65.1304 -65.1304 -65.1300 -65.1288
   -65.1284 -65.1284 -65.1277 -65.1277 -65.1255 -65.1242 -65.1242 -65.1223
   -65.1216 -65.1214 -65.1214 -65.1212 -65.1212 -65.1203 -65.1154 -65.1142
   -65.1142 -65.1134 -65.1134 -65.1122 -65.1122 -65.1122 -65.1121 -65.1115
   -65.1115 -65.1096 -65.1093 -65.1093 -65.1090 -65.1084 -65.1084 -65.1064
   -65.1060 -65.1036 -65.1035 -65.1035 -65.1034 -65.1028 -65.1028 -65.1013
   -65.1013 -65.1010 -65.1001 -65.1001 -65.0997 -65.0973 -65.0969 -65.0969
   -65.0969 -65.0954 -65.0954 -65.0953 -65.0937 -65.0937 -65.0891 -65.0891
   -65.0887 -65.0876 -65.0876 -65.0874 -65.0868 -65.0868 -65.0838 -65.0838
   -65.0770 -65.0770 -64.9925 -64.9925 -64.9922 -64.9813 -64.9745 -64.9745
   -64.9679 -64.9652 -64.9652 -64.9507 -64.9444 -64.9356 -64.9356 -64.9343
   -64.9343 -64.9325 -64.9298 -64.9298 -64.9233 -64.9149 -64.9144 -64.9144
   -64.9143 -64.9143 -64.9142 -64.9137 -64.9137 -64.9116 -64.9116 -64.9115
   -64.9109 -64.8977 -64.8955 -64.8954 -64.8792 -64.8792 -64.8790 -64.8789
   -64.8789 -64.8780 -64.8780 -64.8757 -64.8757 -64.8666 -64.8666 -64.8318
   -64.8274 -64.8274 -64.8273 -64.8264 -64.8264 -64.8263 -64.8242 -64.8242
   -13.0620 -10.3006 -10.3003  -6.6899  -6.6893  -4.7602  -3.9873  -3.3741
    -3.1424  -2.7834  -2.4443  -2.1200  -2.1199  -1.4408  -1.0518  -1.0220
    -1.0220  -1.0209  -1.0209  -1.0208  -0.9746  -0.6230  -0.6230  -0.6200
    -0.6200  -0.6186  -0.6072  -0.3720  -0.1904  -0.1902  -0.1290  -0.1290
    -0.1228  -0.1204  -0.1103  -0.1103  -0.0985   0.3176   0.3176   0.3300
     0.3323   0.3323   0.3393   0.6651   0.6651   0.6795   0.6799   0.6799
     0.6855   0.8051   0.8051   0.8082   0.8093   0.8093   0.8112   0.8541
     0.8541   0.8572   0.8572   0.8577   0.8593   0.8891   0.8891   0.9030
     0.9030   0.9094   0.9095   1.0054   1.0058   1.0177   1.0177   1.0200
     1.0201   1.0277   1.0314   1.0314   1.0340   1.0476   1.0476   1.0490
     1.0490   1.0829   1.0829   1.1416   1.1416   1.2069   1.2069   1.2369
     1.2369   1.2413   1.2427   1.2427   1.2460   1.2861   1.2861   1.4049
     1.4049   1.4784   1.4784   1.4805   1.4821   1.5461   1.5461   1.6181
     1.6181   1.6264   1.6264   1.6358   1.6358   1.6371   1.6390   1.6714
     1.6716   1.6726   1.6727   1.6807   1.6966   1.7495   1.7495   1.7506
     1.7515   1.7617   1.7617   1.7622   1.7623   1.7927   1.7927   1.8169
     1.8292   1.8292   1.8333   1.8336   1.8336   1.8373   1.8523   1.8523
     1.8785   1.8785   1.8876   1.8888   1.8888   1.8895   1.8948   1.8948
     1.9101   1.9103   1.9103   1.9118   1.9123   1.9123   1.9181   1.9181
     1.9273   1.9940   1.9940   2.0058   2.0068   2.0311   2.0311   2.0317
     2.0375   2.0529   2.0529   2.0584   2.0584   2.0806   2.0806   2.0902
     2.0905   2.1090   2.1090   2.1091   2.1117   2.1122   2.1122   2.1125
     2.1125   2.2869   2.2869   2.2888   2.2956   2.3362   2.3362   2.3629
     2.3642   2.3642   2.3673   2.3673   2.3678   2.4088   2.4088   2.4159
     2.4201   2.4485   2.4485   2.4491   2.4491   2.4659   2.4659   2.4739
     2.4740   2.5332   2.5396   2.5396   2.5597   2.5597   2.5637   2.5660
     2.5660   2.5786   2.5788   2.5788   2.5901   2.5901   2.5936   2.5971
     2.5972   2.5976   2.5976   2.5985   2.6089   2.6089   2.6700   2.6700
     2.7372   2.7379   2.7379   2.7396   2.7398   2.7398   2.7908   2.7921
     2.7921   2.7939   2.7996   2.7996   2.7998   2.8007   2.8013   2.8013
     2.8058   2.8058   2.8522   2.8522   2.8638   2.8657   2.8657   2.8675
     2.8675   2.8682   2.8787   2.8788   2.8788   2.8799   2.8804   2.8804
     2.8986   2.8991   2.8991   2.8998   2.9003   2.9003   2.9119   2.9119
     2.9458   2.9469   2.9469   2.9517   2.9517   2.9569   2.9569   2.9598
     2.9751   2.9755   2.9953   2.9955   2.9955   2.9967   2.9967   2.9974
     3.0182   3.0182   3.0208   3.0208   3.0331   3.0331   3.0497   3.0509
     3.0565   3.0566   3.0566   3.0598   3.0598   3.0609   3.0820   3.0820
     3.0840   3.0912   3.0912   3.0977   3.1398   3.1401   3.1401   3.1428
     3.1429   3.1430   3.1582   3.1582   3.9758   4.0529   4.0529   4.0621
     4.1308   4.1484   4.1484   4.6351   5.4548   5.4548   5.4870   5.5506
     5.5959   5.5959   6.7967   6.7968   6.9892   7.2364   7.3424   7.4031
     7.4032   7.4554   7.4555   7.9376   7.9376   7.9386   7.9390   7.9557
     7.9557   8.1907   8.3275   8.3275   8.3529   8.3529   8.4428   8.7236
     8.7310   8.8113   8.8936   8.8937   8.9834   8.9846   9.0131   9.2149
     9.2149   9.3803   9.4335   9.6164   9.6164   9.6326   9.6326   9.8832
     9.8833   9.9084   9.9983  10.0031  10.5485  10.5742  10.7123  10.7123
    10.7966  10.7966  10.8387  10.8387  10.9824  10.9824  11.0350  11.0350
    11.0603  11.1513  11.1957  11.3532  11.3533  11.4376  11.4376  11.4618
    11.5479  11.6081  11.6081  11.7703  11.8338  11.8338  11.8956  11.8956
    11.9583  11.9975  11.9975  12.0256  12.0256  12.0525  12.1358  12.2326
    12.2326  12.2851  12.3134  12.3870  12.3871  12.5815  12.5815  12.7921
    12.8763  12.8833  12.8834  13.0428  13.0428  13.0695  13.0751  13.1186
    13.2042  13.2169

          k = 0.0000 0.2887 0.0000 ( 61417 PWs)   bands (ev):

  -107.7271-107.7194-107.7160-107.7152-107.7141-107.7133-107.7127-107.7126
  -107.7117-107.7109-107.7109-107.7101-107.7101-107.7095-107.7094-107.7092
  -107.7087-107.7077-107.7067-107.7062-107.7054-107.7035-107.7034-107.7016
  -107.6999-107.6997-107.6995-107.6969-107.6954-107.6952-107.6942-107.6939
  -107.6930-107.6926-107.6916-107.6891-107.5451-107.5424-107.5424-107.5171
  -107.5145-107.5144-107.4993-107.4969-107.4968-107.4596-107.4566-107.4556
  -107.4554-107.4541-107.4539-107.4534-107.4523-107.4523 -65.1744 -65.1669
   -65.1642 -65.1631 -65.1624 -65.1619 -65.1611 -65.1604 -65.1584 -65.1579
   -65.1565 -65.1563 -65.1553 -65.1548 -65.1512 -65.1504 -65.1493 -65.1478
   -65.1466 -65.1464 -65.1452 -65.1449 -65.1448 -65.1440 -65.1427 -65.1426
   -65.1419 -65.1406 -65.1375 -65.1373 -65.1357 -65.1347 -65.1346 -65.1338
   -65.1334 -65.1322 -65.1320 -65.1307 -65.1296 -65.1293 -65.1275 -65.1273
   -65.1256 -65.1240 -65.1240 -65.1233 -65.1228 -65.1227 -65.1215 -65.1211
   -65.1198 -65.1194 -65.1187 -65.1182 -65.1178 -65.1166 -65.1161 -65.1160
   -65.1145 -65.1142 -65.1137 -65.1136 -65.1130 -65.1125 -65.1115 -65.1106
   -65.1093 -65.1088 -65.1086 -65.1078 -65.1070 -65.1069 -65.1064 -65.1060
   -65.1057 -65.1051 -65.1049 -65.1042 -65.1037 -65.1033 -65.1032 -65.1024
   -65.1020 -65.1010 -65.1007 -65.0996 -65.0996 -65.0990 -65.0986 -65.0981
   -65.0978 -65.0966 -65.0955 -65.0950 -65.0949 -65.0921 -65.0921 -65.0919
   -65.0906 -65.0905 -65.0884 -65.0882 -65.0880 -65.0872 -65.0849 -65.0842
   -65.0810 -65.0779 -64.9960 -64.9943 -64.9937 -64.9821 -64.9731 -64.9713
   -64.9680 -64.9629 -64.9620 -64.9464 -64.9462 -64.9374 -64.9364 -64.9344
   -64.9324 -64.9321 -64.9299 -64.9297 -64.9258 -64.9242 -64.9203 -64.9200
   -64.9190 -64.9187 -64.9172 -64.9149 -64.9072 -64.9069 -64.9015 -64.9011
   -64.8984 -64.8977 -64.8955 -64.8954 -64.8830 -64.8828 -64.8818 -64.8790
   -64.8786 -64.8780 -64.8757 -64.8757 -64.8748 -64.8709 -64.8677 -64.8313
   -64.8286 -64.8277 -64.8274 -64.8262 -64.8260 -64.8255 -64.8244 -64.8243
   -13.0612 -10.3041 -10.3011  -6.6926  -6.6852  -4.7328  -3.7741  -3.1662
    -3.1146  -2.7872  -2.2581  -2.1850  -2.1467  -2.1281  -1.6350  -1.4653
    -1.4593  -1.3153  -1.0007  -0.9799  -0.9216  -0.7866  -0.4036  -0.4027
    -0.3242  -0.3209  -0.2215  -0.2137  -0.1912  -0.1832  -0.1187  -0.1162
     0.0155   0.0485   0.0564   0.1522   0.1545   0.1555   0.3197   0.3366
     0.3589   0.4242   0.4253   0.6005   0.6158   0.6492   0.6494   0.6648
     0.6855   0.6855   0.7017   0.7047   0.7419   0.7526   0.7553   0.7569
     0.7666   0.7676   0.8099   0.8100   0.8438   0.8444   0.8729   0.8750
     0.8759   0.9250   0.9291   0.9422   0.9422   0.9607   0.9620   0.9737
     0.9743   0.9978   0.9993   1.0507   1.1140   1.1172   1.1174   1.1422
     1.1435   1.1531   1.1582   1.1855   1.1863   1.2272   1.2301   1.2320
     1.2863   1.3014   1.3018   1.3166   1.3328   1.3425   1.3764   1.3814
     1.3901   1.4053   1.4133   1.4300   1.4473   1.4662   1.4956   1.5056
     1.5083   1.5252   1.5300   1.5449   1.5716   1.5836   1.5983   1.6030
     1.6031   1.6123   1.6494   1.6575   1.6830   1.7121   1.7239   1.7309
     1.7316   1.7443   1.7469   1.7512   1.7813   1.7902   1.7907   1.8035
     1.8046   1.8154   1.8198   1.8244   1.8384   1.8443   1.8460   1.8627
     1.8745   1.8800   1.8809   1.8856   1.8912   1.8996   1.9049   1.9101
     1.9117   1.9171   1.9205   1.9207   1.9427   1.9476   1.9515   1.9614
     1.9633   1.9801   1.9812   1.9889   1.9926   1.9970   1.9974   2.0207
     2.0352   2.0374   2.0495   2.0595   2.0598   2.0624   2.0658   2.0727
     2.0895   2.0922   2.1143   2.1251   2.1300   2.1312   2.1442   2.1451
     2.1595   2.1715   2.1733   2.1741   2.1995   2.2043   2.2055   2.2248
     2.2478   2.2494   2.2800   2.2943   2.2975   2.2992   2.3040   2.3070
     2.3566   2.3780   2.3990   2.4004   2.4058   2.4087   2.4246   2.4257
     2.4556   2.4558   2.4669   2.4684   2.4705   2.4739   2.4897   2.4926
     2.5336   2.5387   2.5436   2.5449   2.5512   2.5752   2.5791   2.5798
     2.5834   2.5855   2.6150   2.6293   2.6315   2.6330   2.6382   2.6496
     2.6576   2.6583   2.6749   2.6779   2.6823   2.6827   2.6933   2.6973
     2.7110   2.7186   2.7656   2.7727   2.7752   2.7996   2.8026   2.8140
     2.8183   2.8194   2.8204   2.8226   2.8345   2.8388   2.8401   2.8525
     2.8532   2.8596   2.8614   2.8842   2.9064   2.9077   2.9084   2.9095
     2.9211   2.9242   2.9370   2.9416   2.9496   2.9510   2.9954   2.9955
     2.9996   2.9999   3.0021   3.0136   3.0187   3.0214   3.0232   3.0275
     3.0312   3.0320   3.0396   3.0397   3.0459   3.0488   3.0564   3.0598
     3.0781   3.0874   3.0880   3.0896   3.0913   3.0948   3.0948   3.0962
     3.1190   3.1271   3.1399   3.1414   3.1436   3.1505   3.1585   3.1636
     3.2027   3.2524   3.3096   3.3736   3.4023   3.4037   3.4992   3.5626
     3.5634   3.8154   3.8575   3.8676   3.8761   3.9214   4.1765   4.4241
     4.5847   4.8317   4.8426   5.0693   5.1615   5.1864   5.2242   5.9320
     5.9336   6.1537   6.2182   6.3052   6.3252   6.3260   6.5242   6.7401
     6.8244   6.9312   6.9935   7.0876   7.1557   7.3057   7.5502   7.8286
     7.8569   7.8742   8.0271   8.1263   8.2927   8.3223   8.3398   8.4453
     8.5120   8.7317   8.7992   8.8029   8.9364   8.9893   9.3102   9.3437
     9.3509   9.4734   9.5683   9.7205   9.8150   9.8473   9.9122   9.9918
    10.0422  10.0780  10.1181  10.2070  10.2770  10.4087  10.4994  10.5050
    10.5694  10.5733  10.6163  10.7297  10.7361  10.8118  10.8412  10.8645
    10.9669  11.0206  11.0316  11.0819  11.1258  11.2866  11.4656  11.4792
    11.5146  11.5520  11.6107  11.7029  11.7668  11.8056  11.8787  12.0019
    12.0768  12.1756  12.2377  12.3211  12.3942  12.4219  12.5001  12.5112
    12.5680  12.6298  12.7107  12.7656  12.8304  12.8396  12.9174  12.9253
    12.9899  13.0762  13.1388  13.1582  13.2157  13.2767  13.3348  13.4094
    13.4301  13.4832

          k = 0.0000-0.5774 0.0000 ( 61408 PWs)   bands (ev):

  -107.7271-107.7187-107.7172-107.7154-107.7143-107.7129-107.7122-107.7122
  -107.7120-107.7107-107.7107-107.7106-107.7103-107.7096-107.7092-107.7088
  -107.7088-107.7077-107.7073-107.7062-107.7054-107.7034-107.7032-107.7016
  -107.6997-107.6996-107.6994-107.6973-107.6957-107.6954-107.6940-107.6931
  -107.6931-107.6928-107.6916-107.6891-107.5450-107.5425-107.5424-107.5171
  -107.5145-107.5144-107.4994-107.4969-107.4968-107.4586-107.4580-107.4558
  -107.4556-107.4536-107.4534-107.4531-107.4526-107.4525 -65.1721 -65.1693
   -65.1670 -65.1659 -65.1637 -65.1622 -65.1612 -65.1607 -65.1595 -65.1594
   -65.1589 -65.1585 -65.1580 -65.1570 -65.1544 -65.1509 -65.1481 -65.1479
   -65.1477 -65.1470 -65.1463 -65.1460 -65.1459 -65.1455 -65.1437 -65.1427
   -65.1423 -65.1411 -65.1369 -65.1354 -65.1348 -65.1346 -65.1340 -65.1330
   -65.1322 -65.1293 -65.1284 -65.1274 -65.1256 -65.1253 -65.1252 -65.1248
   -65.1242 -65.1231 -65.1225 -65.1225 -65.1219 -65.1204 -65.1203 -65.1190
   -65.1181 -65.1177 -65.1175 -65.1172 -65.1166 -65.1165 -65.1149 -65.1146
   -65.1131 -65.1122 -65.1117 -65.1114 -65.1108 -65.1105 -65.1102 -65.1101
   -65.1101 -65.1097 -65.1093 -65.1081 -65.1074 -65.1069 -65.1063 -65.1058
   -65.1057 -65.1050 -65.1041 -65.1034 -65.1030 -65.1029 -65.1028 -65.1019
   -65.1018 -65.1013 -65.1004 -65.1002 -65.1000 -65.0994 -65.0992 -65.0989
   -65.0981 -65.0978 -65.0973 -65.0956 -65.0950 -65.0947 -65.0946 -65.0938
   -65.0922 -65.0918 -65.0915 -65.0900 -65.0897 -65.0884 -65.0882 -65.0870
   -65.0814 -65.0799 -64.9987 -64.9957 -64.9948 -64.9832 -64.9714 -64.9709
   -64.9676 -64.9585 -64.9575 -64.9489 -64.9441 -64.9392 -64.9371 -64.9327
   -64.9322 -64.9304 -64.9300 -64.9299 -64.9285 -64.9260 -64.9225 -64.9222
   -64.9219 -64.9216 -64.9216 -64.9155 -64.9035 -64.9032 -64.8978 -64.8955
   -64.8954 -64.8912 -64.8911 -64.8909 -64.8905 -64.8829 -64.8829 -64.8823
   -64.8799 -64.8796 -64.8780 -64.8757 -64.8757 -64.8710 -64.8704 -64.8305
   -64.8298 -64.8278 -64.8276 -64.8257 -64.8256 -64.8253 -64.8246 -64.8245
   -13.0604 -10.3076 -10.3019  -6.6958  -6.6805  -4.7044  -3.1497  -3.1489
    -3.0860  -2.7910  -2.5647  -2.5605  -2.2201  -2.1362  -1.7193  -1.6409
    -1.6159  -1.6148  -1.1938  -1.1094  -1.0570  -0.5908  -0.5096  -0.3951
    -0.3753  -0.2511  -0.1806  -0.0026   0.1652   0.1817   0.2005   0.2010
     0.2018   0.2030   0.2057   0.2866   0.3437   0.3650   0.3669   0.3790
     0.3803   0.3987   0.3990   0.4000   0.4002   0.4523   0.4525   0.4539
     0.4540   0.5830   0.6137   0.6139   0.6179   0.6181   0.6387   0.6959
     0.7962   0.7965   0.7982   0.7985   0.8034   0.8207   0.8352   0.8421
     0.8439   0.8481   0.8484   0.9688   0.9694   0.9716   0.9718   0.9903
     0.9949   1.0722   1.0769   1.0798   1.0876   1.0880   1.1312   1.1319
     1.1730   1.1740   1.2253   1.2253   1.2387   1.2390   1.2903   1.3031
     1.3115   1.3171   1.3383   1.3399   1.3504   1.3524   1.3652   1.3765
     1.3776   1.4100   1.4310   1.4634   1.4757   1.4773   1.4876   1.5038
     1.5111   1.5197   1.5278   1.5322   1.5324   1.5448   1.5528   1.5893
     1.5897   1.5908   1.5927   1.5994   1.6149   1.6508   1.6560   1.6663
     1.6674   1.6688   1.6696   1.6733   1.6761   1.6991   1.7206   1.7598
     1.7656   1.7675   1.7744   1.7803   1.8037   1.8160   1.8168   1.8182
     1.8192   1.8225   1.8304   1.8732   1.8781   1.8820   1.8838   1.8905
     1.8966   1.8975   1.9268   1.9302   1.9335   1.9380   1.9570   1.9588
     1.9613   1.9645   1.9655   1.9845   1.9856   1.9902   1.9950   2.0149
     2.0190   2.0432   2.0558   2.0574   2.1093   2.1110   2.1210   2.1227
     2.1228   2.1241   2.1254   2.1256   2.1298   2.1383   2.1441   2.1456
     2.1534   2.1645   2.1655   2.1710   2.1712   2.1760   2.1765   2.2464
     2.2498   2.2532   2.2629   2.3196   2.3202   2.3271   2.3278   2.3304
     2.3348   2.3361   2.3453   2.3487   2.3527   2.3635   2.3770   2.3949
     2.4052   2.4070   2.4100   2.4137   2.4280   2.4354   2.4360   2.4372
     2.4392   2.4512   2.4570   2.4600   2.4630   2.4756   2.4759   2.5608
     2.5652   2.5898   2.5918   2.6160   2.6167   2.6198   2.6212   2.6474
     2.6484   2.6583   2.6736   2.6845   2.6913   2.6941   2.6978   2.7114
     2.7154   2.7306   2.7321   2.7337   2.7353   2.7469   2.7527   2.7628
     2.7669   2.7703   2.7801   2.8203   2.8204   2.8245   2.8253   2.8358
     2.8361   2.8516   2.8565   2.8819   2.8844   2.8970   2.9007   2.9194
     2.9196   2.9395   2.9464   2.9560   2.9641   2.9990   3.0001   3.0204
     3.0258   3.0258   3.0301   3.0488   3.0563   3.0568   3.0584   3.0593
     3.0612   3.0665   3.0875   3.0885   3.0891   3.0892   3.0899   3.1042
     3.1065   3.1098   3.1216   3.1273   3.1388   3.1430   3.1499   3.1511
     3.1521   3.1643   3.1699   3.1899   3.1939   3.2060   3.2068   3.2094
     3.2094   3.2787   3.3322   3.8293   3.8772   3.8876   3.9117   4.3638
     4.4169   4.4178   4.4180   4.4186   4.6774   4.6823   4.6843   4.6853
     5.0019   5.0294   5.0826   5.1624   5.2100   5.2261   5.2450   5.2635
     5.2775   5.5189   5.8530   6.1017   6.1062   6.1223   6.1877   6.2194
     6.2222   6.2621   6.2806   6.6470   6.7784   6.9202   7.0342   7.5155
     7.5283   7.5358   7.7361   7.8339   7.9816   8.2994   8.3948   8.4227
     8.6492   8.6590   8.6657   8.7091   8.9295   8.9801   9.0167   9.2049
     9.2956   9.3077   9.3173   9.3287   9.4482   9.5676   9.6289   9.7624
     9.8286   9.9359   9.9424   9.9829  10.0263  10.2572  10.3107  10.3977
    10.4189  10.4929  10.5840  10.6121  10.6338  10.7965  10.8783  11.0212
    11.0415  11.1166  11.2578  11.2887  11.3046  11.4215  11.4672  11.4997
    11.6558  11.7080  11.7794  12.0236  12.1444  12.1744  12.3221  12.3513
    12.3582  12.3749  12.4194  12.6408  12.6904  12.8131  12.8550  12.9343
    12.9886  13.0376  13.1093  13.1372  13.2075  13.2921  13.3013  13.3034
    13.3621  13.3668  13.3756  13.4173  13.6180  13.6437  13.6836  13.7281
    13.8307  13.8316

          k = 0.2500-0.7217 0.0000 ( 61343 PWs)   bands (ev):

  -107.7271-107.7187-107.7167-107.7162-107.7136-107.7130-107.7125-107.7120
  -107.7119-107.7114-107.7108-107.7104-107.7100-107.7095-107.7093-107.7089
  -107.7088-107.7076-107.7071-107.7066-107.7053-107.7034-107.7032-107.7016
  -107.6998-107.6996-107.6994-107.6971-107.6962-107.6951-107.6938-107.6935
  -107.6930-107.6927-107.6916-107.6891-107.5450-107.5425-107.5424-107.5171
  -107.5145-107.5144-107.4994-107.4969-107.4968-107.4588-107.4574-107.4570
  -107.4546-107.4540-107.4534-107.4532-107.4526-107.4524 -65.1724 -65.1682
   -65.1659 -65.1656 -65.1644 -65.1643 -65.1633 -65.1620 -65.1609 -65.1588
   -65.1584 -65.1576 -65.1547 -65.1538 -65.1528 -65.1518 -65.1517 -65.1499
   -65.1489 -65.1464 -65.1459 -65.1455 -65.1449 -65.1440 -65.1431 -65.1429
   -65.1417 -65.1409 -65.1390 -65.1379 -65.1358 -65.1334 -65.1330 -65.1321
   -65.1303 -65.1297 -65.1292 -65.1282 -65.1280 -65.1261 -65.1253 -65.1246
   -65.1245 -65.1235 -65.1226 -65.1223 -65.1204 -65.1194 -65.1189 -65.1184
   -65.1180 -65.1179 -65.1176 -65.1165 -65.1161 -65.1154 -65.1150 -65.1143
   -65.1137 -65.1130 -65.1123 -65.1122 -65.1118 -65.1110 -65.1101 -65.1095
   -65.1091 -65.1084 -65.1080 -65.1078 -65.1073 -65.1070 -65.1062 -65.1060
   -65.1059 -65.1053 -65.1046 -65.1042 -65.1038 -65.1027 -65.1027 -65.1023
   -65.1016 -65.1015 -65.1009 -65.1004 -65.1001 -65.1000 -65.0998 -65.0994
   -65.0983 -65.0972 -65.0968 -65.0957 -65.0950 -65.0945 -65.0940 -65.0938
   -65.0930 -65.0922 -65.0911 -65.0904 -65.0899 -65.0889 -65.0860 -65.0842
   -65.0838 -65.0801 -64.9978 -64.9966 -64.9951 -64.9821 -64.9740 -64.9692
   -64.9662 -64.9610 -64.9572 -64.9486 -64.9424 -64.9388 -64.9364 -64.9349
   -64.9324 -64.9307 -64.9300 -64.9293 -64.9278 -64.9275 -64.9257 -64.9248
   -64.9199 -64.9182 -64.9162 -64.9144 -64.9141 -64.8978 -64.8955 -64.8954
   -64.8948 -64.8928 -64.8919 -64.8918 -64.8863 -64.8860 -64.8854 -64.8850
   -64.8786 -64.8780 -64.8757 -64.8757 -64.8741 -64.8740 -64.8700 -64.8306
   -64.8293 -64.8288 -64.8267 -64.8260 -64.8256 -64.8254 -64.8246 -64.8244
   -13.0604 -10.3062 -10.3033  -6.6919  -6.6843  -4.7047  -3.3545  -3.0860
    -2.7908  -2.7594  -2.5503  -2.5483  -2.2081  -2.1645  -1.9923  -1.9700
    -1.8534  -1.2918  -1.1231  -1.0081  -0.6752  -0.5371  -0.5351  -0.2589
    -0.2095  -0.1884  -0.1806  -0.1409  -0.1209   0.0547   0.0547   0.0650
     0.2224   0.2273   0.2494   0.2499   0.2651   0.3157   0.3250   0.3259
     0.3448   0.4437   0.4450   0.4465   0.4477   0.5074   0.5215   0.5809
     0.5871   0.5969   0.6083   0.6390   0.6392   0.6403   0.6575   0.6593
     0.7093   0.7134   0.7514   0.7541   0.7818   0.7821   0.8125   0.8171
     0.8204   0.8758   0.8777   0.9085   0.9291   0.9482   0.9492   1.0102
     1.0232   1.0726   1.0912   1.0940   1.1106   1.1148   1.1728   1.1768
     1.1879   1.2045   1.2055   1.2098   1.2551   1.2759   1.2811   1.3073
     1.3195   1.3325   1.3392   1.3508   1.3562   1.3751   1.3762   1.3992
     1.4148   1.4322   1.4374   1.4399   1.4444   1.4507   1.4699   1.4733
     1.4755   1.4927   1.4962   1.5222   1.5285   1.5352   1.5479   1.5700
     1.5730   1.5863   1.6277   1.6321   1.6327   1.6413   1.6508   1.6622
     1.6804   1.6882   1.7064   1.7239   1.7251   1.7328   1.7375   1.7409
     1.7609   1.7772   1.7804   1.7824   1.7827   1.8202   1.8263   1.8309
     1.8323   1.8371   1.8459   1.8580   1.8604   1.8773   1.8787   1.8890
     1.8907   1.9104   1.9209   1.9334   1.9458   1.9566   1.9616   1.9674
     1.9693   1.9782   1.9811   1.9857   1.9919   1.9924   2.0032   2.0059
     2.0114   2.0218   2.0270   2.0357   2.0566   2.0575   2.0689   2.0744
     2.0915   2.0929   2.0943   2.0976   2.0988   2.1038   2.1050   2.1094
     2.1099   2.1177   2.1733   2.1741   2.2306   2.2375   2.2393   2.2426
     2.2467   2.2508   2.2682   2.2704   2.2945   2.3009   2.3074   2.3192
     2.3356   2.3381   2.3743   2.3761   2.3803   2.4070   2.4086   2.4100
     2.4106   2.4112   2.4154   2.4172   2.4201   2.4300   2.4477   2.4505
     2.4804   2.4881   2.4973   2.4977   2.5044   2.5118   2.5214   2.5419
     2.5470   2.5529   2.5634   2.5776   2.5827   2.6002   2.6143   2.6151
     2.6265   2.6310   2.6541   2.6606   2.6667   2.6802   2.6992   2.7040
     2.7194   2.7235   2.7257   2.7428   2.7493   2.7639   2.7711   2.7741
     2.7765   2.7813   2.7824   2.7867   2.7946   2.8021   2.8199   2.8379
     2.8608   2.8641   2.8647   2.8779   2.9136   2.9157   2.9292   2.9381
     2.9599   2.9736   2.9776   2.9828   2.9847   2.9873   2.9951   3.0262
     3.0299   3.0306   3.0346   3.0384   3.0465   3.0494   3.0520   3.0532
     3.0587   3.0598   3.0619   3.0636   3.0678   3.0786   3.0815   3.0921
     3.0939   3.1051   3.1058   3.1152   3.1218   3.1324   3.1395   3.1472
     3.1485   3.1647   3.1828   3.1864   3.2064   3.2263   3.2278   3.3916
     3.4125   3.4948   3.4954   3.5903   3.5934   3.7247   3.9136   3.9251
     4.3082   4.3494   4.4008   4.4036   4.4203   4.6766   4.7691   4.7988
     4.8075   4.8105   4.9946   5.2416   5.2718   5.2773   5.7303   5.7549
     5.7968   5.9328   5.9898   6.0128   6.0242   6.1657   6.1767   6.2331
     6.3277   6.6490   6.7054   6.7474   6.9067   6.9647   7.0596   7.1008
     7.1415   7.1962   7.2383   7.4774   7.6902   7.7312   7.9977   8.0336
     8.4558   8.5823   8.5881   8.6911   8.7522   8.9002   9.1521   9.1828
     9.2572   9.3515   9.3879   9.5180   9.5554   9.6115   9.7417   9.7750
     9.8221  10.0069  10.0594  10.1411  10.1975  10.3969  10.4174  10.5026
    10.5443  10.6489  10.8157  10.8950  10.9550  11.0075  11.1065  11.1980
    11.2107  11.2830  11.4369  11.5639  11.5756  11.6350  11.6403  11.7283
    11.7858  11.8858  11.9215  11.9603  11.9804  12.0842  12.1316  12.2117
    12.3112  12.3927  12.4835  12.5016  12.5772  12.6203  12.6686  12.7128
    12.7340  12.8119  12.8278  12.8854  12.9591  13.0945  13.1472  13.1886
    13.3211  13.3493  13.3917  13.4338  13.5127  13.5744  13.6204  13.6764
    13.7253  13.7451

          k =-0.2500 0.1443 0.0000 ( 61417 PWs)   bands (ev):

  -107.7271-107.7194-107.7160-107.7152-107.7141-107.7133-107.7127-107.7126
  -107.7116-107.7110-107.7109-107.7101-107.7101-107.7095-107.7094-107.7092
  -107.7087-107.7077-107.7067-107.7062-107.7054-107.7035-107.7034-107.7016
  -107.6999-107.6997-107.6995-107.6969-107.6954-107.6952-107.6942-107.6939
  -107.6930-107.6926-107.6916-107.6891-107.5451-107.5424-107.5424-107.5171
  -107.5145-107.5144-107.4993-107.4969-107.4968-107.4596-107.4566-107.4556
  -107.4554-107.4541-107.4539-107.4534-107.4523-107.4523 -65.1744 -65.1669
   -65.1642 -65.1631 -65.1624 -65.1619 -65.1611 -65.1604 -65.1584 -65.1579
   -65.1565 -65.1563 -65.1553 -65.1548 -65.1512 -65.1504 -65.1493 -65.1478
   -65.1466 -65.1464 -65.1452 -65.1449 -65.1448 -65.1440 -65.1427 -65.1426
   -65.1419 -65.1406 -65.1375 -65.1373 -65.1357 -65.1347 -65.1346 -65.1338
   -65.1334 -65.1322 -65.1320 -65.1307 -65.1296 -65.1293 -65.1275 -65.1273
   -65.1256 -65.1240 -65.1240 -65.1233 -65.1228 -65.1227 -65.1215 -65.1211
   -65.1198 -65.1194 -65.1187 -65.1182 -65.1178 -65.1166 -65.1161 -65.1160
   -65.1145 -65.1142 -65.1137 -65.1136 -65.1130 -65.1125 -65.1115 -65.1106
   -65.1093 -65.1088 -65.1086 -65.1078 -65.1070 -65.1069 -65.1064 -65.1060
   -65.1057 -65.1051 -65.1049 -65.1042 -65.1037 -65.1033 -65.1032 -65.1024
   -65.1020 -65.1010 -65.1007 -65.0996 -65.0996 -65.0990 -65.0986 -65.0981
   -65.0978 -65.0966 -65.0955 -65.0950 -65.0949 -65.0921 -65.0921 -65.0919
   -65.0906 -65.0905 -65.0884 -65.0882 -65.0880 -65.0872 -65.0849 -65.0842
   -65.0810 -65.0779 -64.9960 -64.9943 -64.9937 -64.9821 -64.9731 -64.9713
   -64.9680 -64.9629 -64.9620 -64.9464 -64.9462 -64.9374 -64.9364 -64.9344
   -64.9324 -64.9321 -64.9299 -64.9297 -64.9258 -64.9242 -64.9203 -64.9200
   -64.9190 -64.9187 -64.9172 -64.9149 -64.9072 -64.9069 -64.9015 -64.9011
   -64.8984 -64.8977 -64.8955 -64.8954 -64.8830 -64.8828 -64.8818 -64.8790
   -64.8786 -64.8780 -64.8757 -64.8757 -64.8748 -64.8709 -64.8677 -64.8313
   -64.8286 -64.8277 -64.8274 -64.8262 -64.8260 -64.8255 -64.8244 -64.8243
   -13.0612 -10.3039 -10.3013  -6.6930  -6.6847  -4.7328  -3.7741  -3.1662
    -3.1146  -2.7872  -2.2581  -2.1850  -2.1466  -2.1282  -1.6350  -1.4653
    -1.4593  -1.3153  -1.0007  -0.9799  -0.9216  -0.7866  -0.4036  -0.4027
    -0.3243  -0.3209  -0.2214  -0.2136  -0.1912  -0.1834  -0.1187  -0.1162
     0.0155   0.0485   0.0564   0.1522   0.1545   0.1555   0.3197   0.3366
     0.3589   0.4242   0.4253   0.6005   0.6158   0.6492   0.6494   0.6648
     0.6855   0.6855   0.7017   0.7047   0.7419   0.7526   0.7553   0.7569
     0.7666   0.7676   0.8099   0.8100   0.8438   0.8444   0.8729   0.8750
     0.8759   0.9250   0.9291   0.9422   0.9422   0.9607   0.9620   0.9737
     0.9743   0.9978   0.9993   1.0507   1.1140   1.1172   1.1174   1.1422
     1.1435   1.1531   1.1582   1.1855   1.1863   1.2272   1.2301   1.2320
     1.2863   1.3014   1.3018   1.3166   1.3328   1.3425   1.3765   1.3814
     1.3901   1.4053   1.4133   1.4300   1.4473   1.4661   1.4956   1.5056
     1.5083   1.5252   1.5300   1.5449   1.5716   1.5836   1.5983   1.6030
     1.6031   1.6123   1.6494   1.6575   1.6830   1.7121   1.7239   1.7309
     1.7316   1.7444   1.7469   1.7512   1.7813   1.7902   1.7907   1.8035
     1.8046   1.8154   1.8198   1.8244   1.8384   1.8443   1.8460   1.8627
     1.8745   1.8800   1.8809   1.8856   1.8912   1.8996   1.9049   1.9101
     1.9117   1.9171   1.9205   1.9207   1.9427   1.9476   1.9515   1.9614
     1.9633   1.9801   1.9812   1.9889   1.9926   1.9970   1.9974   2.0207
     2.0352   2.0374   2.0495   2.0595   2.0598   2.0624   2.0658   2.0727
     2.0895   2.0922   2.1143   2.1251   2.1300   2.1312   2.1442   2.1451
     2.1595   2.1715   2.1733   2.1741   2.1995   2.2043   2.2055   2.2248
     2.2478   2.2494   2.2800   2.2943   2.2975   2.2992   2.3040   2.3070
     2.3566   2.3780   2.3990   2.4004   2.4058   2.4087   2.4246   2.4257
     2.4556   2.4558   2.4669   2.4684   2.4705   2.4739   2.4897   2.4926
     2.5336   2.5387   2.5436   2.5449   2.5512   2.5752   2.5791   2.5798
     2.5834   2.5855   2.6150   2.6293   2.6315   2.6330   2.6382   2.6496
     2.6576   2.6583   2.6749   2.6779   2.6823   2.6827   2.6933   2.6973
     2.7110   2.7186   2.7656   2.7727   2.7752   2.7996   2.8026   2.8140
     2.8183   2.8194   2.8204   2.8226   2.8345   2.8388   2.8401   2.8525
     2.8532   2.8596   2.8614   2.8842   2.9064   2.9077   2.9084   2.9095
     2.9211   2.9242   2.9370   2.9416   2.9496   2.9510   2.9954   2.9955
     2.9996   2.9999   3.0021   3.0136   3.0187   3.0214   3.0232   3.0275
     3.0312   3.0320   3.0396   3.0397   3.0459   3.0488   3.0564   3.0598
     3.0781   3.0874   3.0880   3.0896   3.0913   3.0948   3.0948   3.0962
     3.1190   3.1271   3.1399   3.1414   3.1436   3.1505   3.1585   3.1636
     3.2027   3.2524   3.3096   3.3736   3.4023   3.4037   3.4992   3.5626
     3.5634   3.8154   3.8575   3.8676   3.8762   3.9214   4.1765   4.4241
     4.5847   4.8317   4.8426   5.0693   5.1615   5.1864   5.2242   5.9320
     5.9336   6.1537   6.2182   6.3052   6.3252   6.3260   6.5242   6.7401
     6.8244   6.9313   6.9935   7.0875   7.1557   7.3057   7.5502   7.8286
     7.8569   7.8742   8.0271   8.1263   8.2926   8.3223   8.3398   8.4453
     8.5120   8.7317   8.7992   8.8029   8.9364   8.9892   9.3102   9.3437
     9.3509   9.4734   9.5685   9.7205   9.8150   9.8473   9.9122   9.9917
    10.0422  10.0781  10.1181  10.2070  10.2769  10.4087  10.4994  10.5050
    10.5695  10.5733  10.6163  10.7297  10.7361  10.8118  10.8413  10.8645
    10.9669  11.0206  11.0316  11.0819  11.1259  11.2866  11.4656  11.4792
    11.5146  11.5520  11.6107  11.7029  11.7668  11.8056  11.8787  12.0018
    12.0768  12.1756  12.2377  12.3211  12.3942  12.4219  12.5001  12.5112
    12.5680  12.6298  12.7107  12.7656  12.8304  12.8397  12.9175  12.9253
    12.9899  13.0762  13.1388  13.1582  13.2157  13.2767  13.3348  13.4094
    13.4301  13.4832

          k = 0.2500 0.1443 0.0000 ( 61417 PWs)   bands (ev):

  -107.7271-107.7194-107.7160-107.7152-107.7141-107.7133-107.7127-107.7126
  -107.7116-107.7110-107.7109-107.7101-107.7101-107.7095-107.7094-107.7092
  -107.7087-107.7077-107.7067-107.7062-107.7054-107.7035-107.7034-107.7016
  -107.6999-107.6997-107.6995-107.6969-107.6954-107.6952-107.6942-107.6939
  -107.6930-107.6926-107.6916-107.6891-107.5451-107.5424-107.5424-107.5171
  -107.5145-107.5144-107.4993-107.4969-107.4968-107.4596-107.4566-107.4556
  -107.4554-107.4541-107.4539-107.4534-107.4523-107.4523 -65.1744 -65.1669
   -65.1642 -65.1631 -65.1624 -65.1619 -65.1611 -65.1604 -65.1584 -65.1579
   -65.1565 -65.1563 -65.1553 -65.1548 -65.1512 -65.1504 -65.1493 -65.1478
   -65.1466 -65.1464 -65.1452 -65.1449 -65.1448 -65.1440 -65.1427 -65.1426
   -65.1419 -65.1406 -65.1375 -65.1373 -65.1357 -65.1347 -65.1346 -65.1338
   -65.1334 -65.1322 -65.1320 -65.1307 -65.1296 -65.1293 -65.1275 -65.1273
   -65.1256 -65.1240 -65.1240 -65.1233 -65.1228 -65.1227 -65.1215 -65.1211
   -65.1198 -65.1194 -65.1187 -65.1182 -65.1178 -65.1166 -65.1161 -65.1160
   -65.1145 -65.1142 -65.1137 -65.1136 -65.1130 -65.1125 -65.1115 -65.1106
   -65.1093 -65.1088 -65.1086 -65.1078 -65.1070 -65.1069 -65.1064 -65.1060
   -65.1057 -65.1051 -65.1049 -65.1042 -65.1037 -65.1033 -65.1032 -65.1024
   -65.1020 -65.1010 -65.1007 -65.0996 -65.0996 -65.0990 -65.0986 -65.0981
   -65.0978 -65.0966 -65.0955 -65.0950 -65.0949 -65.0921 -65.0921 -65.0919
   -65.0906 -65.0905 -65.0884 -65.0882 -65.0880 -65.0872 -65.0849 -65.0842
   -65.0810 -65.0779 -64.9960 -64.9943 -64.9937 -64.9821 -64.9731 -64.9713
   -64.9680 -64.9629 -64.9620 -64.9464 -64.9462 -64.9374 -64.9364 -64.9344
   -64.9324 -64.9321 -64.9299 -64.9297 -64.9258 -64.9242 -64.9203 -64.9200
   -64.9190 -64.9187 -64.9172 -64.9149 -64.9072 -64.9069 -64.9015 -64.9011
   -64.8984 -64.8977 -64.8955 -64.8954 -64.8830 -64.8828 -64.8818 -64.8790
   -64.8786 -64.8780 -64.8757 -64.8757 -64.8748 -64.8709 -64.8677 -64.8314
   -64.8286 -64.8277 -64.8274 -64.8262 -64.8260 -64.8255 -64.8244 -64.8243
   -13.0612 -10.3039 -10.3013  -6.6929  -6.6848  -4.7328  -3.7741  -3.1662
    -3.1146  -2.7872  -2.2581  -2.1850  -2.1467  -2.1281  -1.6350  -1.4653
    -1.4593  -1.3153  -1.0007  -0.9799  -0.9216  -0.7866  -0.4036  -0.4027
    -0.3242  -0.3209  -0.2215  -0.2136  -0.1912  -0.1833  -0.1187  -0.1162
     0.0155   0.0485   0.0564   0.1522   0.1545   0.1555   0.3197   0.3366
     0.3589   0.4242   0.4253   0.6005   0.6158   0.6492   0.6494   0.6648
     0.6855   0.6855   0.7017   0.7047   0.7419   0.7526   0.7553   0.7569
     0.7666   0.7676   0.8099   0.8100   0.8438   0.8444   0.8729   0.8750
     0.8759   0.9250   0.9291   0.9422   0.9422   0.9607   0.9620   0.9737
     0.9743   0.9978   0.9993   1.0507   1.1140   1.1172   1.1174   1.1422
     1.1435   1.1531   1.1582   1.1855   1.1863   1.2272   1.2301   1.2320
     1.2863   1.3014   1.3018   1.3166   1.3328   1.3425   1.3765   1.3814
     1.3901   1.4053   1.4133   1.4300   1.4473   1.4661   1.4956   1.5056
     1.5083   1.5252   1.5300   1.5449   1.5716   1.5836   1.5983   1.6030
     1.6031   1.6123   1.6494   1.6575   1.6830   1.7121   1.7239   1.7309
     1.7316   1.7444   1.7469   1.7512   1.7813   1.7902   1.7907   1.8035
     1.8046   1.8154   1.8198   1.8244   1.8384   1.8443   1.8460   1.8627
     1.8745   1.8800   1.8809   1.8856   1.8912   1.8996   1.9049   1.9101
     1.9117   1.9171   1.9205   1.9207   1.9427   1.9476   1.9515   1.9614
     1.9633   1.9801   1.9812   1.9889   1.9926   1.9970   1.9974   2.0207
     2.0352   2.0374   2.0495   2.0595   2.0598   2.0624   2.0658   2.0727
     2.0895   2.0922   2.1143   2.1251   2.1300   2.1312   2.1442   2.1451
     2.1595   2.1715   2.1733   2.1741   2.1995   2.2043   2.2055   2.2248
     2.2478   2.2494   2.2800   2.2943   2.2975   2.2992   2.3040   2.3070
     2.3566   2.3780   2.3990   2.4004   2.4058   2.4087   2.4246   2.4257
     2.4556   2.4558   2.4669   2.4684   2.4705   2.4739   2.4897   2.4926
     2.5336   2.5387   2.5436   2.5449   2.5512   2.5752   2.5791   2.5798
     2.5834   2.5855   2.6150   2.6293   2.6315   2.6330   2.6382   2.6496
     2.6576   2.6583   2.6749   2.6779   2.6823   2.6827   2.6933   2.6973
     2.7110   2.7186   2.7656   2.7727   2.7752   2.7996   2.8026   2.8140
     2.8183   2.8194   2.8204   2.8226   2.8345   2.8388   2.8401   2.8525
     2.8532   2.8596   2.8614   2.8842   2.9064   2.9077   2.9084   2.9095
     2.9211   2.9242   2.9370   2.9416   2.9496   2.9510   2.9954   2.9955
     2.9996   2.9999   3.0021   3.0136   3.0187   3.0214   3.0232   3.0275
     3.0312   3.0320   3.0396   3.0397   3.0459   3.0488   3.0564   3.0598
     3.0781   3.0874   3.0880   3.0896   3.0913   3.0948   3.0948   3.0962
     3.1190   3.1271   3.1399   3.1414   3.1436   3.1505   3.1585   3.1636
     3.2027   3.2524   3.3096   3.3736   3.4023   3.4037   3.4992   3.5626
     3.5634   3.8154   3.8575   3.8676   3.8762   3.9214   4.1765   4.4241
     4.5847   4.8317   4.8426   5.0693   5.1615   5.1864   5.2242   5.9320
     5.9336   6.1537   6.2182   6.3052   6.3252   6.3260   6.5242   6.7401
     6.8244   6.9313   6.9935   7.0875   7.1557   7.3057   7.5502   7.8286
     7.8569   7.8742   8.0271   8.1263   8.2926   8.3223   8.3398   8.4453
     8.5120   8.7317   8.7992   8.8029   8.9364   8.9892   9.3103   9.3437
     9.3509   9.4734   9.5684   9.7205   9.8150   9.8473   9.9122   9.9917
    10.0422  10.0781  10.1181  10.2070  10.2769  10.4087  10.4994  10.5050
    10.5694  10.5733  10.6163  10.7297  10.7361  10.8118  10.8413  10.8645
    10.9669  11.0206  11.0316  11.0819  11.1259  11.2866  11.4656  11.4792
    11.5146  11.5520  11.6107  11.7029  11.7668  11.8056  11.8787  12.0018
    12.0768  12.1756  12.2377  12.3211  12.3942  12.4219  12.5001  12.5112
    12.5680  12.6298  12.7107  12.7656  12.8304  12.8396  12.9175  12.9253
    12.9899  13.0762  13.1388  13.1582  13.2157  13.2767  13.3348  13.4094
    13.4301  13.4832

          k = 0.5000-0.2887 0.0000 ( 61408 PWs)   bands (ev):

  -107.7271-107.7187-107.7172-107.7154-107.7143-107.7129-107.7122-107.7122
  -107.7120-107.7107-107.7107-107.7106-107.7103-107.7096-107.7092-107.7088
  -107.7088-107.7077-107.7073-107.7062-107.7054-107.7034-107.7032-107.7016
  -107.6997-107.6996-107.6994-107.6973-107.6957-107.6954-107.6940-107.6931
  -107.6931-107.6928-107.6916-107.6891-107.5450-107.5424-107.5424-107.5171
  -107.5145-107.5144-107.4994-107.4969-107.4968-107.4586-107.4580-107.4558
  -107.4556-107.4536-107.4534-107.4531-107.4526-107.4525 -65.1721 -65.1693
   -65.1670 -65.1659 -65.1637 -65.1622 -65.1612 -65.1607 -65.1595 -65.1593
   -65.1589 -65.1585 -65.1580 -65.1570 -65.1544 -65.1509 -65.1481 -65.1479
   -65.1477 -65.1470 -65.1463 -65.1460 -65.1459 -65.1455 -65.1437 -65.1427
   -65.1423 -65.1411 -65.1369 -65.1354 -65.1348 -65.1347 -65.1340 -65.1330
   -65.1322 -65.1293 -65.1285 -65.1274 -65.1256 -65.1253 -65.1252 -65.1248
   -65.1242 -65.1231 -65.1225 -65.1225 -65.1219 -65.1204 -65.1203 -65.1190
   -65.1181 -65.1177 -65.1175 -65.1172 -65.1166 -65.1165 -65.1149 -65.1146
   -65.1131 -65.1122 -65.1117 -65.1114 -65.1108 -65.1105 -65.1102 -65.1101
   -65.1101 -65.1097 -65.1093 -65.1081 -65.1074 -65.1069 -65.1063 -65.1058
   -65.1057 -65.1050 -65.1041 -65.1034 -65.1030 -65.1029 -65.1028 -65.1019
   -65.1018 -65.1013 -65.1004 -65.1002 -65.1000 -65.0994 -65.0992 -65.0989
   -65.0981 -65.0978 -65.0973 -65.0956 -65.0950 -65.0947 -65.0946 -65.0938
   -65.0922 -65.0918 -65.0915 -65.0900 -65.0897 -65.0884 -65.0882 -65.0870
   -65.0814 -65.0799 -64.9987 -64.9957 -64.9948 -64.9832 -64.9714 -64.9709
   -64.9676 -64.9585 -64.9575 -64.9489 -64.9441 -64.9392 -64.9371 -64.9327
   -64.9322 -64.9304 -64.9300 -64.9299 -64.9285 -64.9260 -64.9225 -64.9222
   -64.9219 -64.9216 -64.9216 -64.9155 -64.9035 -64.9032 -64.8978 -64.8954
   -64.8954 -64.8912 -64.8911 -64.8909 -64.8905 -64.8829 -64.8829 -64.8823
   -64.8799 -64.8796 -64.8780 -64.8757 -64.8757 -64.8710 -64.8704 -64.8305
   -64.8298 -64.8278 -64.8276 -64.8257 -64.8256 -64.8253 -64.8246 -64.8245
   -13.0604 -10.3074 -10.3021  -6.6962  -6.6800  -4.7044  -3.1497  -3.1489
    -3.0860  -2.7910  -2.5647  -2.5605  -2.2200  -2.1363  -1.7193  -1.6409
    -1.6159  -1.6148  -1.1938  -1.1094  -1.0570  -0.5908  -0.5096  -0.3951
    -0.3753  -0.2509  -0.1808  -0.0026   0.1652   0.1817   0.2005   0.2010
     0.2018   0.2030   0.2057   0.2866   0.3437   0.3650   0.3669   0.3790
     0.3803   0.3987   0.3990   0.4000   0.4002   0.4523   0.4525   0.4539
     0.4540   0.5830   0.6137   0.6139   0.6179   0.6181   0.6387   0.6959
     0.7962   0.7965   0.7982   0.7985   0.8034   0.8207   0.8352   0.8421
     0.8438   0.8481   0.8484   0.9688   0.9694   0.9716   0.9718   0.9903
     0.9949   1.0722   1.0769   1.0798   1.0876   1.0880   1.1312   1.1319
     1.1730   1.1740   1.2253   1.2253   1.2387   1.2390   1.2903   1.3031
     1.3115   1.3171   1.3383   1.3399   1.3504   1.3524   1.3652   1.3765
     1.3776   1.4100   1.4311   1.4635   1.4757   1.4773   1.4876   1.5038
     1.5111   1.5197   1.5278   1.5322   1.5324   1.5448   1.5528   1.5893
     1.5897   1.5908   1.5927   1.5994   1.6149   1.6508   1.6560   1.6663
     1.6674   1.6688   1.6696   1.6733   1.6761   1.6991   1.7206   1.7598
     1.7656   1.7675   1.7744   1.7803   1.8037   1.8160   1.8168   1.8182
     1.8192   1.8225   1.8304   1.8732   1.8781   1.8820   1.8838   1.8905
     1.8966   1.8975   1.9268   1.9302   1.9335   1.9380   1.9570   1.9588
     1.9613   1.9645   1.9655   1.9845   1.9856   1.9902   1.9950   2.0149
     2.0189   2.0432   2.0558   2.0574   2.1093   2.1110   2.1210   2.1227
     2.1228   2.1241   2.1254   2.1256   2.1298   2.1383   2.1441   2.1456
     2.1534   2.1645   2.1655   2.1710   2.1712   2.1760   2.1765   2.2464
     2.2498   2.2532   2.2629   2.3197   2.3202   2.3271   2.3278   2.3305
     2.3348   2.3361   2.3453   2.3487   2.3527   2.3635   2.3770   2.3949
     2.4052   2.4070   2.4100   2.4137   2.4280   2.4354   2.4360   2.4372
     2.4392   2.4512   2.4570   2.4600   2.4630   2.4756   2.4759   2.5608
     2.5652   2.5898   2.5918   2.6160   2.6167   2.6198   2.6212   2.6474
     2.6484   2.6583   2.6736   2.6845   2.6913   2.6941   2.6978   2.7114
     2.7154   2.7305   2.7321   2.7337   2.7353   2.7469   2.7527   2.7628
     2.7669   2.7703   2.7801   2.8203   2.8204   2.8245   2.8253   2.8358
     2.8361   2.8516   2.8565   2.8819   2.8844   2.8970   2.9007   2.9194
     2.9196   2.9395   2.9464   2.9560   2.9641   2.9990   3.0001   3.0204
     3.0258   3.0258   3.0301   3.0488   3.0563   3.0568   3.0584   3.0593
     3.0612   3.0665   3.0875   3.0885   3.0891   3.0892   3.0899   3.1042
     3.1065   3.1098   3.1216   3.1273   3.1388   3.1430   3.1499   3.1511
     3.1521   3.1643   3.1699   3.1899   3.1939   3.2060   3.2068   3.2094
     3.2094   3.2787   3.3322   3.8293   3.8772   3.8876   3.9117   4.3638
     4.4169   4.4178   4.4180   4.4186   4.6774   4.6823   4.6843   4.6853
     5.0019   5.0294   5.0826   5.1624   5.2100   5.2261   5.2450   5.2635
     5.2775   5.5189   5.8530   6.1017   6.1062   6.1223   6.1877   6.2194
     6.2222   6.2621   6.2806   6.6470   6.7784   6.9204   7.0341   7.5155
     7.5283   7.5358   7.7361   7.8340   7.9814   8.2994   8.3948   8.4227
     8.6492   8.6590   8.6657   8.7091   8.9295   8.9801   9.0167   9.2048
     9.2956   9.3077   9.3173   9.3287   9.4482   9.5677   9.6289   9.7624
     9.8286   9.9359   9.9424   9.9829  10.0263  10.2572  10.3107  10.3978
    10.4189  10.4929  10.5840  10.6121  10.6338  10.7965  10.8783  11.0212
    11.0415  11.1166  11.2578  11.2887  11.3046  11.4215  11.4672  11.4998
    11.6558  11.7081  11.7793  12.0235  12.1445  12.1744  12.3222  12.3513
    12.3582  12.3749  12.4195  12.6407  12.6905  12.8130  12.8549  12.9342
    12.9884  13.0376  13.1093  13.1372  13.2075  13.2921  13.3013  13.3034
    13.3621  13.3668  13.3756  13.4173  13.6181  13.6438  13.6838  13.7281
    13.8307  13.8317

          k =-0.5000-0.2887 0.0000 ( 61408 PWs)   bands (ev):

  -107.7271-107.7187-107.7172-107.7154-107.7143-107.7129-107.7122-107.7122
  -107.7120-107.7107-107.7107-107.7106-107.7103-107.7096-107.7092-107.7088
  -107.7088-107.7077-107.7073-107.7062-107.7054-107.7034-107.7032-107.7016
  -107.6997-107.6996-107.6994-107.6973-107.6957-107.6954-107.6940-107.6931
  -107.6931-107.6928-107.6916-107.6891-107.5450-107.5425-107.5424-107.5171
  -107.5145-107.5144-107.4994-107.4969-107.4968-107.4586-107.4580-107.4558
  -107.4556-107.4536-107.4534-107.4531-107.4526-107.4525 -65.1721 -65.1693
   -65.1670 -65.1659 -65.1637 -65.1622 -65.1612 -65.1607 -65.1595 -65.1594
   -65.1589 -65.1585 -65.1580 -65.1570 -65.1544 -65.1509 -65.1481 -65.1479
   -65.1477 -65.1470 -65.1463 -65.1460 -65.1459 -65.1455 -65.1437 -65.1427
   -65.1423 -65.1411 -65.1369 -65.1354 -65.1348 -65.1347 -65.1340 -65.1330
   -65.1322 -65.1293 -65.1285 -65.1274 -65.1256 -65.1253 -65.1252 -65.1248
   -65.1242 -65.1231 -65.1225 -65.1225 -65.1219 -65.1204 -65.1203 -65.1190
   -65.1181 -65.1177 -65.1175 -65.1172 -65.1166 -65.1165 -65.1149 -65.1146
   -65.1131 -65.1122 -65.1117 -65.1114 -65.1108 -65.1105 -65.1102 -65.1101
   -65.1101 -65.1097 -65.1093 -65.1081 -65.1074 -65.1069 -65.1063 -65.1058
   -65.1057 -65.1050 -65.1041 -65.1034 -65.1030 -65.1029 -65.1028 -65.1019
   -65.1018 -65.1013 -65.1004 -65.1002 -65.1000 -65.0994 -65.0992 -65.0989
   -65.0981 -65.0978 -65.0973 -65.0956 -65.0950 -65.0947 -65.0946 -65.0938
   -65.0922 -65.0918 -65.0915 -65.0900 -65.0897 -65.0884 -65.0882 -65.0870
   -65.0814 -65.0799 -64.9987 -64.9957 -64.9948 -64.9832 -64.9714 -64.9709
   -64.9676 -64.9585 -64.9575 -64.9489 -64.9441 -64.9392 -64.9371 -64.9327
   -64.9322 -64.9304 -64.9300 -64.9299 -64.9285 -64.9260 -64.9225 -64.9222
   -64.9219 -64.9216 -64.9216 -64.9155 -64.9035 -64.9032 -64.8978 -64.8954
   -64.8954 -64.8912 -64.8911 -64.8909 -64.8905 -64.8829 -64.8829 -64.8823
   -64.8799 -64.8796 -64.8780 -64.8757 -64.8757 -64.8710 -64.8704 -64.8305
   -64.8298 -64.8278 -64.8276 -64.8257 -64.8256 -64.8253 -64.8246 -64.8245
   -13.0604 -10.3074 -10.3020  -6.6962  -6.6801  -4.7044  -3.1497  -3.1489
    -3.0860  -2.7910  -2.5647  -2.5605  -2.2201  -2.1362  -1.7193  -1.6409
    -1.6159  -1.6148  -1.1938  -1.1094  -1.0570  -0.5908  -0.5096  -0.3951
    -0.3753  -0.2510  -0.1807  -0.0026   0.1652   0.1817   0.2005   0.2010
     0.2018   0.2030   0.2057   0.2866   0.3437   0.3650   0.3669   0.3790
     0.3803   0.3987   0.3990   0.4000   0.4002   0.4523   0.4525   0.4539
     0.4540   0.5830   0.6137   0.6139   0.6179   0.6181   0.6387   0.6959
     0.7962   0.7965   0.7982   0.7985   0.8034   0.8207   0.8352   0.8421
     0.8438   0.8481   0.8484   0.9688   0.9694   0.9716   0.9718   0.9903
     0.9949   1.0722   1.0769   1.0798   1.0876   1.0880   1.1312   1.1319
     1.1730   1.1740   1.2253   1.2253   1.2387   1.2390   1.2903   1.3031
     1.3115   1.3171   1.3383   1.3399   1.3504   1.3524   1.3652   1.3765
     1.3776   1.4100   1.4310   1.4635   1.4757   1.4773   1.4876   1.5038
     1.5111   1.5197   1.5278   1.5322   1.5324   1.5448   1.5528   1.5893
     1.5897   1.5908   1.5927   1.5994   1.6149   1.6508   1.6560   1.6663
     1.6674   1.6688   1.6696   1.6733   1.6761   1.6991   1.7206   1.7598
     1.7656   1.7675   1.7744   1.7803   1.8037   1.8160   1.8168   1.8182
     1.8192   1.8225   1.8304   1.8732   1.8781   1.8820   1.8838   1.8905
     1.8966   1.8975   1.9268   1.9302   1.9335   1.9380   1.9570   1.9588
     1.9613   1.9645   1.9655   1.9845   1.9856   1.9902   1.9950   2.0149
     2.0189   2.0432   2.0558   2.0574   2.1093   2.1110   2.1210   2.1227
     2.1228   2.1241   2.1254   2.1256   2.1298   2.1383   2.1441   2.1456
     2.1534   2.1645   2.1655   2.1710   2.1712   2.1760   2.1765   2.2464
     2.2498   2.2532   2.2629   2.3197   2.3202   2.3271   2.3278   2.3305
     2.3348   2.3361   2.3453   2.3487   2.3527   2.3635   2.3770   2.3949
     2.4052   2.4070   2.4100   2.4137   2.4280   2.4354   2.4360   2.4372
     2.4392   2.4512   2.4570   2.4600   2.4630   2.4756   2.4759   2.5608
     2.5652   2.5898   2.5918   2.6160   2.6167   2.6198   2.6212   2.6474
     2.6484   2.6583   2.6736   2.6845   2.6913   2.6941   2.6978   2.7114
     2.7154   2.7305   2.7321   2.7337   2.7353   2.7469   2.7527   2.7628
     2.7669   2.7703   2.7801   2.8203   2.8204   2.8245   2.8253   2.8358
     2.8361   2.8516   2.8565   2.8819   2.8844   2.8970   2.9007   2.9194
     2.9196   2.9395   2.9464   2.9560   2.9641   2.9990   3.0001   3.0204
     3.0258   3.0258   3.0301   3.0488   3.0563   3.0568   3.0584   3.0593
     3.0612   3.0665   3.0875   3.0885   3.0891   3.0892   3.0899   3.1042
     3.1065   3.1098   3.1216   3.1273   3.1388   3.1430   3.1499   3.1511
     3.1521   3.1643   3.1699   3.1899   3.1939   3.2060   3.2068   3.2094
     3.2094   3.2787   3.3322   3.8293   3.8772   3.8876   3.9117   4.3638
     4.4169   4.4178   4.4180   4.4186   4.6774   4.6823   4.6843   4.6853
     5.0019   5.0294   5.0826   5.1624   5.2100   5.2261   5.2450   5.2635
     5.2775   5.5189   5.8530   6.1017   6.1062   6.1223   6.1877   6.2194
     6.2222   6.2621   6.2806   6.6470   6.7784   6.9203   7.0341   7.5155
     7.5283   7.5358   7.7361   7.8340   7.9814   8.2994   8.3948   8.4227
     8.6492   8.6590   8.6657   8.7091   8.9295   8.9801   9.0167   9.2048
     9.2956   9.3077   9.3173   9.3287   9.4482   9.5677   9.6289   9.7624
     9.8286   9.9359   9.9424   9.9829  10.0263  10.2572  10.3107  10.3978
    10.4189  10.4929  10.5840  10.6121  10.6338  10.7965  10.8783  11.0212
    11.0415  11.1166  11.2578  11.2887  11.3046  11.4215  11.4672  11.4998
    11.6558  11.7081  11.7793  12.0235  12.1445  12.1744  12.3221  12.3514
    12.3582  12.3749  12.4195  12.6407  12.6905  12.8130  12.8549  12.9342
    12.9884  13.0376  13.1093  13.1372  13.2075  13.2921  13.3014  13.3034
    13.3621  13.3668  13.3756  13.4173  13.6181  13.6437  13.6837  13.7281
    13.8307  13.8316

          k =-0.2500-0.7217 0.0000 ( 61343 PWs)   bands (ev):

  -107.7271-107.7187-107.7167-107.7162-107.7136-107.7130-107.7125-107.7120
  -107.7119-107.7114-107.7108-107.7104-107.7100-107.7095-107.7093-107.7089
  -107.7088-107.7076-107.7071-107.7066-107.7053-107.7034-107.7032-107.7016
  -107.6998-107.6996-107.6994-107.6971-107.6962-107.6951-107.6938-107.6935
  -107.6930-107.6927-107.6916-107.6891-107.5450-107.5425-107.5424-107.5171
  -107.5145-107.5144-107.4994-107.4969-107.4968-107.4588-107.4574-107.4570
  -107.4546-107.4540-107.4534-107.4532-107.4526-107.4524 -65.1724 -65.1682
   -65.1659 -65.1656 -65.1644 -65.1643 -65.1633 -65.1620 -65.1609 -65.1588
   -65.1584 -65.1576 -65.1547 -65.1538 -65.1528 -65.1518 -65.1517 -65.1499
   -65.1489 -65.1464 -65.1459 -65.1455 -65.1449 -65.1440 -65.1431 -65.1429
   -65.1417 -65.1409 -65.1390 -65.1379 -65.1358 -65.1334 -65.1330 -65.1321
   -65.1303 -65.1297 -65.1292 -65.1282 -65.1280 -65.1261 -65.1253 -65.1246
   -65.1245 -65.1235 -65.1226 -65.1223 -65.1204 -65.1194 -65.1189 -65.1184
   -65.1180 -65.1179 -65.1176 -65.1165 -65.1161 -65.1154 -65.1150 -65.1143
   -65.1137 -65.1130 -65.1123 -65.1122 -65.1118 -65.1110 -65.1101 -65.1095
   -65.1091 -65.1084 -65.1080 -65.1078 -65.1073 -65.1070 -65.1062 -65.1060
   -65.1059 -65.1053 -65.1046 -65.1042 -65.1038 -65.1027 -65.1027 -65.1023
   -65.1016 -65.1015 -65.1009 -65.1004 -65.1001 -65.1000 -65.0998 -65.0994
   -65.0983 -65.0972 -65.0968 -65.0957 -65.0950 -65.0945 -65.0941 -65.0938
   -65.0930 -65.0922 -65.0911 -65.0904 -65.0899 -65.0889 -65.0860 -65.0842
   -65.0838 -65.0801 -64.9978 -64.9966 -64.9951 -64.9821 -64.9740 -64.9692
   -64.9662 -64.9610 -64.9572 -64.9486 -64.9424 -64.9388 -64.9364 -64.9349
   -64.9324 -64.9307 -64.9300 -64.9293 -64.9278 -64.9275 -64.9257 -64.9248
   -64.9199 -64.9182 -64.9162 -64.9144 -64.9141 -64.8978 -64.8955 -64.8954
   -64.8948 -64.8928 -64.8919 -64.8918 -64.8863 -64.8860 -64.8854 -64.8850
   -64.8786 -64.8780 -64.8757 -64.8757 -64.8741 -64.8740 -64.8700 -64.8306
   -64.8293 -64.8288 -64.8267 -64.8260 -64.8256 -64.8254 -64.8246 -64.8244
   -13.0604 -10.3061 -10.3033  -6.6920  -6.6843  -4.7047  -3.3545  -3.0860
    -2.7908  -2.7594  -2.5503  -2.5483  -2.2080  -2.1645  -1.9923  -1.9700
    -1.8534  -1.2918  -1.1231  -1.0081  -0.6752  -0.5371  -0.5351  -0.2588
    -0.2096  -0.1884  -0.1806  -0.1409  -0.1209   0.0547   0.0547   0.0650
     0.2224   0.2273   0.2494   0.2499   0.2651   0.3157   0.3250   0.3259
     0.3448   0.4437   0.4450   0.4465   0.4477   0.5074   0.5215   0.5809
     0.5871   0.5969   0.6083   0.6390   0.6392   0.6403   0.6575   0.6593
     0.7093   0.7134   0.7514   0.7541   0.7818   0.7821   0.8125   0.8171
     0.8204   0.8758   0.8777   0.9085   0.9291   0.9482   0.9492   1.0102
     1.0232   1.0726   1.0912   1.0940   1.1106   1.1148   1.1728   1.1768
     1.1879   1.2045   1.2055   1.2098   1.2551   1.2759   1.2811   1.3073
     1.3195   1.3325   1.3392   1.3508   1.3562   1.3751   1.3762   1.3992
     1.4148   1.4322   1.4374   1.4399   1.4444   1.4507   1.4699   1.4733
     1.4755   1.4927   1.4962   1.5222   1.5285   1.5352   1.5479   1.5700
     1.5730   1.5863   1.6277   1.6321   1.6327   1.6413   1.6508   1.6622
     1.6804   1.6882   1.7064   1.7239   1.7251   1.7328   1.7375   1.7409
     1.7609   1.7772   1.7804   1.7824   1.7827   1.8202   1.8263   1.8309
     1.8323   1.8371   1.8459   1.8580   1.8604   1.8773   1.8787   1.8890
     1.8907   1.9104   1.9209   1.9334   1.9458   1.9566   1.9616   1.9674
     1.9693   1.9782   1.9811   1.9857   1.9919   1.9924   2.0032   2.0059
     2.0114   2.0218   2.0270   2.0357   2.0566   2.0575   2.0689   2.0744
     2.0915   2.0929   2.0943   2.0976   2.0988   2.1038   2.1050   2.1094
     2.1099   2.1177   2.1733   2.1741   2.2306   2.2375   2.2393   2.2426
     2.2467   2.2508   2.2682   2.2704   2.2945   2.3009   2.3074   2.3192
     2.3356   2.3381   2.3743   2.3761   2.3803   2.4070   2.4086   2.4100
     2.4106   2.4112   2.4154   2.4172   2.4201   2.4300   2.4477   2.4505
     2.4804   2.4881   2.4973   2.4977   2.5044   2.5118   2.5214   2.5419
     2.5470   2.5529   2.5634   2.5776   2.5827   2.6002   2.6143   2.6151
     2.6265   2.6310   2.6541   2.6606   2.6667   2.6802   2.6992   2.7040
     2.7194   2.7235   2.7257   2.7428   2.7493   2.7639   2.7711   2.7741
     2.7765   2.7813   2.7824   2.7867   2.7946   2.8021   2.8199   2.8379
     2.8608   2.8641   2.8647   2.8779   2.9136   2.9157   2.9292   2.9381
     2.9599   2.9736   2.9776   2.9828   2.9847   2.9873   2.9951   3.0262
     3.0299   3.0306   3.0346   3.0384   3.0465   3.0494   3.0520   3.0532
     3.0587   3.0598   3.0619   3.0636   3.0678   3.0786   3.0815   3.0921
     3.0939   3.1051   3.1058   3.1152   3.1218   3.1324   3.1395   3.1472
     3.1485   3.1647   3.1828   3.1864   3.2064   3.2263   3.2278   3.3916
     3.4125   3.4948   3.4954   3.5903   3.5934   3.7247   3.9136   3.9251
     4.3082   4.3494   4.4008   4.4036   4.4203   4.6766   4.7691   4.7988
     4.8075   4.8105   4.9946   5.2416   5.2718   5.2773   5.7303   5.7549
     5.7968   5.9328   5.9898   6.0128   6.0242   6.1657   6.1767   6.2331
     6.3277   6.6490   6.7054   6.7474   6.9067   6.9647   7.0596   7.1008
     7.1415   7.1962   7.2383   7.4774   7.6902   7.7312   7.9977   8.0336
     8.4558   8.5823   8.5881   8.6911   8.7522   8.9002   9.1521   9.1828
     9.2572   9.3515   9.3879   9.5180   9.5554   9.6115   9.7417   9.7750
     9.8221  10.0069  10.0594  10.1411  10.1975  10.3969  10.4174  10.5026
    10.5443  10.6489  10.8157  10.8950  10.9550  11.0075  11.1065  11.1980
    11.2107  11.2830  11.4370  11.5639  11.5757  11.6350  11.6404  11.7283
    11.7858  11.8858  11.9215  11.9603  11.9804  12.0842  12.1315  12.2117
    12.3112  12.3927  12.4834  12.5016  12.5772  12.6203  12.6686  12.7128
    12.7340  12.8119  12.8278  12.8854  12.9590  13.0945  13.1472  13.1886
    13.3211  13.3493  13.3917  13.4338  13.5127  13.5744  13.6205  13.6764
    13.7253  13.7451

          k =-0.5000-0.5774 0.0000 ( 61343 PWs)   bands (ev):

  -107.7271-107.7187-107.7167-107.7162-107.7136-107.7131-107.7125-107.7120
  -107.7119-107.7113-107.7108-107.7104-107.7100-107.7095-107.7093-107.7089
  -107.7088-107.7076-107.7071-107.7066-107.7053-107.7034-107.7032-107.7016
  -107.6998-107.6996-107.6994-107.6971-107.6962-107.6951-107.6938-107.6935
  -107.6930-107.6927-107.6916-107.6891-107.5450-107.5424-107.5424-107.5171
  -107.5145-107.5144-107.4994-107.4969-107.4968-107.4588-107.4574-107.4570
  -107.4546-107.4540-107.4534-107.4532-107.4526-107.4524 -65.1724 -65.1682
   -65.1659 -65.1656 -65.1644 -65.1643 -65.1633 -65.1620 -65.1609 -65.1588
   -65.1584 -65.1576 -65.1547 -65.1538 -65.1528 -65.1518 -65.1517 -65.1499
   -65.1489 -65.1464 -65.1459 -65.1455 -65.1449 -65.1440 -65.1431 -65.1429
   -65.1417 -65.1409 -65.1390 -65.1379 -65.1358 -65.1334 -65.1330 -65.1321
   -65.1303 -65.1297 -65.1292 -65.1282 -65.1280 -65.1261 -65.1253 -65.1246
   -65.1245 -65.1235 -65.1226 -65.1223 -65.1205 -65.1194 -65.1189 -65.1184
   -65.1180 -65.1179 -65.1176 -65.1166 -65.1161 -65.1154 -65.1150 -65.1143
   -65.1137 -65.1130 -65.1123 -65.1122 -65.1118 -65.1110 -65.1101 -65.1095
   -65.1091 -65.1084 -65.1080 -65.1078 -65.1073 -65.1070 -65.1062 -65.1060
   -65.1059 -65.1053 -65.1046 -65.1042 -65.1038 -65.1027 -65.1027 -65.1023
   -65.1016 -65.1015 -65.1009 -65.1004 -65.1001 -65.1000 -65.0998 -65.0994
   -65.0983 -65.0972 -65.0968 -65.0957 -65.0950 -65.0945 -65.0940 -65.0938
   -65.0930 -65.0922 -65.0911 -65.0904 -65.0899 -65.0889 -65.0860 -65.0842
   -65.0838 -65.0801 -64.9978 -64.9966 -64.9951 -64.9821 -64.9740 -64.9692
   -64.9662 -64.9610 -64.9572 -64.9486 -64.9424 -64.9387 -64.9364 -64.9349
   -64.9324 -64.9307 -64.9300 -64.9293 -64.9278 -64.9275 -64.9257 -64.9248
   -64.9199 -64.9182 -64.9162 -64.9144 -64.9141 -64.8978 -64.8954 -64.8954
   -64.8948 -64.8928 -64.8919 -64.8918 -64.8863 -64.8860 -64.8854 -64.8850
   -64.8786 -64.8780 -64.8757 -64.8757 -64.8741 -64.8740 -64.8700 -64.8306
   -64.8293 -64.8288 -64.8267 -64.8260 -64.8256 -64.8254 -64.8246 -64.8244
   -13.0604 -10.3059 -10.3035  -6.6923  -6.6839  -4.7047  -3.3545  -3.0860
    -2.7908  -2.7594  -2.5503  -2.5483  -2.2080  -2.1645  -1.9923  -1.9700
    -1.8534  -1.2918  -1.1231  -1.0081  -0.6752  -0.5371  -0.5351  -0.2587
    -0.2097  -0.1884  -0.1806  -0.1409  -0.1209   0.0547   0.0547   0.0650
     0.2224   0.2273   0.2494   0.2499   0.2651   0.3157   0.3250   0.3259
     0.3448   0.4437   0.4450   0.4465   0.4477   0.5074   0.5215   0.5809
     0.5871   0.5969   0.6083   0.6390   0.6392   0.6403   0.6575   0.6593
     0.7093   0.7134   0.7514   0.7541   0.7818   0.7821   0.8125   0.8171
     0.8204   0.8758   0.8777   0.9085   0.9291   0.9482   0.9491   1.0102
     1.0232   1.0726   1.0912   1.0940   1.1106   1.1148   1.1728   1.1768
     1.1879   1.2045   1.2055   1.2098   1.2551   1.2759   1.2811   1.3073
     1.3195   1.3325   1.3392   1.3508   1.3561   1.3751   1.3762   1.3992
     1.4148   1.4322   1.4374   1.4399   1.4444   1.4507   1.4700   1.4733
     1.4755   1.4927   1.4962   1.5222   1.5285   1.5352   1.5479   1.5700
     1.5730   1.5863   1.6277   1.6321   1.6327   1.6413   1.6508   1.6622
     1.6804   1.6882   1.7064   1.7239   1.7251   1.7328   1.7375   1.7409
     1.7609   1.7772   1.7804   1.7824   1.7827   1.8202   1.8263   1.8309
     1.8323   1.8371   1.8459   1.8580   1.8604   1.8773   1.8787   1.8890
     1.8907   1.9104   1.9209   1.9334   1.9458   1.9566   1.9616   1.9674
     1.9693   1.9782   1.9811   1.9857   1.9919   1.9924   2.0032   2.0059
     2.0114   2.0218   2.0270   2.0357   2.0566   2.0575   2.0689   2.0744
     2.0915   2.0929   2.0943   2.0976   2.0988   2.1038   2.1050   2.1094
     2.1099   2.1177   2.1733   2.1741   2.2306   2.2375   2.2393   2.2426
     2.2467   2.2508   2.2682   2.2704   2.2945   2.3009   2.3074   2.3192
     2.3356   2.3382   2.3743   2.3761   2.3803   2.4070   2.4086   2.4100
     2.4106   2.4112   2.4154   2.4172   2.4201   2.4300   2.4477   2.4505
     2.4804   2.4881   2.4973   2.4977   2.5044   2.5118   2.5214   2.5419
     2.5470   2.5529   2.5634   2.5776   2.5827   2.6002   2.6143   2.6151
     2.6265   2.6310   2.6541   2.6606   2.6667   2.6802   2.6992   2.7040
     2.7194   2.7235   2.7257   2.7428   2.7493   2.7639   2.7711   2.7741
     2.7765   2.7813   2.7824   2.7867   2.7947   2.8021   2.8199   2.8379
     2.8608   2.8641   2.8647   2.8779   2.9136   2.9157   2.9292   2.9381
     2.9599   2.9736   2.9776   2.9828   2.9847   2.9873   2.9951   3.0262
     3.0299   3.0306   3.0346   3.0384   3.0465   3.0494   3.0520   3.0532
     3.0587   3.0598   3.0619   3.0636   3.0678   3.0786   3.0815   3.0921
     3.0939   3.1051   3.1058   3.1152   3.1218   3.1324   3.1395   3.1472
     3.1485   3.1647   3.1828   3.1864   3.2064   3.2263   3.2278   3.3916
     3.4125   3.4948   3.4954   3.5903   3.5934   3.7247   3.9136   3.9251
     4.3082   4.3494   4.4008   4.4036   4.4203   4.6766   4.7691   4.7988
     4.8075   4.8105   4.9947   5.2416   5.2718   5.2773   5.7303   5.7549
     5.7968   5.9328   5.9898   6.0128   6.0242   6.1657   6.1767   6.2331
     6.3277   6.6490   6.7054   6.7474   6.9066   6.9647   7.0595   7.1009
     7.1415   7.1962   7.2383   7.4774   7.6902   7.7311   7.9977   8.0336
     8.4557   8.5823   8.5881   8.6911   8.7522   8.9002   9.1521   9.1828
     9.2572   9.3515   9.3879   9.5180   9.5554   9.6115   9.7417   9.7750
     9.8221  10.0069  10.0593  10.1411  10.1975  10.3968  10.4174  10.5026
    10.5443  10.6489  10.8157  10.8950  10.9550  11.0075  11.1066  11.1980
    11.2107  11.2830  11.4370  11.5639  11.5756  11.6350  11.6404  11.7283
    11.7858  11.8859  11.9215  11.9603  11.9804  12.0842  12.1315  12.2117
    12.3114  12.3927  12.4834  12.5016  12.5772  12.6203  12.6686  12.7128
    12.7340  12.8118  12.8277  12.8853  12.9590  13.0945  13.1471  13.1886
    13.3211  13.3493  13.3917  13.4339  13.5127  13.5744  13.6205  13.6764
    13.7253  13.7452

     the Fermi energy is     4.7248 ev

!    total energy              =  -21903.75356792 Ry
     Harris-Foulkes estimate   =  -21903.75356797 Ry
     estimated scf accuracy    <          8.8E-09 Ry

     The total energy is the sum of the following terms:

     one-electron contribution = -208817.30297199 Ry
     hartree contribution      =  104615.14181181 Ry
     xc contribution           =   -2143.27580276 Ry
     ewald contribution        =   84441.73649598 Ry
     smearing contrib. (-TS)   =      -0.05310096 Ry

     convergence has been achieved in  38 iterations
 
     init_run     :     72.77s CPU     74.82s WALL (       1 calls)
     electrons    :  18027.01s CPU  18313.24s WALL (       1 calls)

     Called by init_run:
     wfcinit      :     61.95s CPU     63.45s WALL (       1 calls)
     potinit      :      7.15s CPU      7.27s WALL (       1 calls)
     hinit0       :      1.93s CPU      1.95s WALL (       1 calls)

     Called by electrons:
     c_bands      :  17006.04s CPU  17254.52s WALL (      38 calls)
     sum_band     :    734.65s CPU    759.60s WALL (      38 calls)
     v_of_rho     :    233.38s CPU    235.61s WALL (      39 calls)
     newd         :     49.77s CPU     60.61s WALL (      39 calls)
     mix_rho      :      6.07s CPU      6.16s WALL (      38 calls)

     Called by c_bands:
     init_us_2    :     13.05s CPU     13.13s WALL (     770 calls)
     cegterg      :  16884.42s CPU  17128.69s WALL (     380 calls)

     Called by sum_band:
     sum_band:bec :      2.08s CPU      2.08s WALL (     380 calls)
     addusdens    :     30.31s CPU     43.49s WALL (      38 calls)

     Called by *egterg:
     h_psi        :   3339.20s CPU   3398.78s WALL (    2005 calls)
     s_psi        :    373.76s CPU    374.13s WALL (    2005 calls)
     g_psi        :      5.55s CPU      5.56s WALL (    1615 calls)
     cdiaghg      :  11119.06s CPU  11220.39s WALL (    1995 calls)

     Called by h_psi:
     h_psi:pot    :   3330.56s CPU   3386.57s WALL (    2005 calls)
     h_psi:calbec :    429.30s CPU    430.71s WALL (    2005 calls)
     vloc_psi     :   2525.77s CPU   2576.37s WALL (    2005 calls)
     add_vuspsi   :    375.47s CPU    379.47s WALL (    2005 calls)

     General routines
     calbec       :    581.08s CPU    582.65s WALL (    2385 calls)
     fft          :    235.89s CPU    237.30s WALL (    2456 calls)
     ffts         :      2.31s CPU      2.32s WALL (      77 calls)
     fftw         :   2845.13s CPU   2902.75s WALL ( 1519224 calls)
     interpolate  :      3.25s CPU      3.27s WALL (      39 calls)
 
     Parallel routines
     fft_scatt_xy :    195.60s CPU    198.36s WALL ( 1521757 calls)
     fft_scatt_yz :   2081.50s CPU   2127.18s WALL ( 1521757 calls)
 
     PWSCF        :     5h 1m CPU        1h 5m WALL

       6h
 
   This run was terminated on:  22:25:20  22Nov2019            

=------------------------------------------------------------------------------=
   JOB DONE.
=------------------------------------------------------------------------------=
