
     Program PWSCF v.6.3MaX starts on 25Nov2019 at 11:54:25 

     This program is part of the open-source Quantum ESPRESSO suite
     for quantum simulation of materials; please cite
         "P. Giannozzi et al., J. Phys.:Condens. Matter 21 395502 (2009);
         "P. Giannozzi et al., J. Phys.:Condens. Matter 29 465901 (2017);
          URL http://www.quantum-espresso.org", 
     in publications or presentations arising from this work. More details at
     http://www.quantum-espresso.org/quote

     Parallel version (MPI), running on    16 processors

     MPI processes distributed on     2 nodes
     R & G space division:  proc/nbgrp/npool/nimage =      16
     Waiting for input...
     Reading input from standard input

     Current dimensions of program PWSCF are:
     Max number of different atomic species (ntypx) = 10
     Max number of k-points (npk) =  40000
     Max angular momentum in pseudopotentials (lmaxx) =  3
     Message from routine iosys:
     minimal I/O required, wf_collect reset to FALSE

     IMPORTANT: XC functional enforced from input :
     Exchange-correlation      = VDW-DF ( 1  4  4  0 1 0)
     Any further DFT definition will be discarded
     Please, verify this is what you really want


     Subspace diagonalization in iterative solution of the eigenvalue problem:
     one sub-group per band group will be used
     scalapack distributed-memory algorithm (size of sub-group:  2*  2 procs)

 
     Parallelization info
     --------------------
     sticks:   dense  smooth     PW     G-vecs:    dense   smooth      PW
     Min         565     189     51               159513    30701    4383
     Max         566     190     52               159526    30710    4400
     Sum        9055    3037    823              2552337   491295   70261
 


     bravais-lattice index     =            0
     lattice parameter (alat)  =      14.8058  a.u.
     unit-cell volume          =   10282.4791 (a.u.)^3
     number of atoms/cell      =           66
     number of atomic types    =            3
     number of electrons       =      1056.00
     number of Kohn-Sham states=          634
     kinetic-energy cutoff     =      50.0000  Ry
     charge density cutoff     =     600.0000  Ry
     convergence threshold     =      1.0E-08
     mixing beta               =       0.3000
     number of iterations used =            8  plain     mixing
     Exchange-correlation      = VDW-DF ( 1  4  4  0 1 0)

     celldm(1)=  14.805786  celldm(2)=   0.000000  celldm(3)=   0.000000
     celldm(4)=   0.000000  celldm(5)=   0.000000  celldm(6)=   0.000000

     crystal axes: (cart. coord. in units of alat)
               a(1) = (   1.000000   0.000000   0.000000 )  
               a(2) = (   0.500000   0.866025   0.000000 )  
               a(3) = (   0.000000   0.000000   3.658245 )  

     reciprocal axes: (cart. coord. in units 2 pi/alat)
               b(1) = (  1.000000 -0.577350  0.000000 )  
               b(2) = (  0.000000  1.154701  0.000000 )  
               b(3) = (  0.000000  0.000000  0.273355 )  


     PseudoPot. # 1 for Cu read from file:
     /deac/thonhauserGrp/chakrad/calculations/atomandmolecule-qe6.2.1-i2012-C6modif/all_pbe_UPF_v1.5/cu_pbe_v1.2.uspp.F.UPF
     MD5 check sum: 6e991ff952a84172a2a52a1c1e996048
     Pseudo is Ultrasoft + core correction, Zval = 19.0
     Generated by new atomic code, or converted to UPF format
     Using radial grid of  867 points,  6 beta functions with: 
                l(1) =   0
                l(2) =   0
                l(3) =   1
                l(4) =   1
                l(5) =   2
                l(6) =   2
     Q(r) pseudized with  8 coefficients,  rinner =    1.150   1.150   1.150
                                                       1.150   1.150

     PseudoPot. # 2 for C  read from file:
     /deac/thonhauserGrp/chakrad/calculations/atomandmolecule-qe6.2.1-i2012-C6modif/all_pbe_UPF_v1.5/c_pbe_v1.2.uspp.F.UPF
     MD5 check sum: d1aef80898a10debaa0f26306b886e00
     Pseudo is Ultrasoft + core correction, Zval =  4.0
     Generated by new atomic code, or converted to UPF format
     Using radial grid of  721 points,  4 beta functions with: 
                l(1) =   0
                l(2) =   0
                l(3) =   1
                l(4) =   1
     Q(r) pseudized with  8 coefficients,  rinner =    1.100   1.100   1.100


     PseudoPot. # 3 for H  read from file:
     /deac/thonhauserGrp/chakrad/calculations/atomandmolecule-qe6.2.1-i2012-C6modif/all_pbe_UPF_v1.5/h_pbe_v1.4.uspp.F.UPF
     MD5 check sum: 761ae9a214b05c3daf00ab9f6b793d6f
     Pseudo is Ultrasoft, Zval =  1.0
     Generated by new atomic code, or converted to UPF format
     Using radial grid of  615 points,  2 beta functions with: 
                l(1) =   0
                l(2) =   0
     Q(r) pseudized with  8 coefficients,  rinner =    0.700

     vdW kernel table read from file vdW_kernel_table
     MD5 check sum: cc9485f6209b1096fbef62427c856dab

     atomic species   valence    mass     pseudopotential
        Cu            19.00     1.00000     Cu( 1.00)
        C              4.00     1.00000     C ( 1.00)
        H              1.00     1.00000     H ( 1.00)

     No symmetry found



   Cartesian axes

     site n.     atom                  positions (alat units)
         1           Cu  tau(   1) = (   0.1666667   0.0962250   0.2552686  )
         2           Cu  tau(   2) = (   0.5000000   0.0962250   0.2552686  )
         3           Cu  tau(   3) = (   0.8333333   0.0962250   0.2552686  )
         4           Cu  tau(   4) = (   0.3333333   0.3849002   0.2552686  )
         5           Cu  tau(   5) = (   0.6666667   0.3849002   0.2552686  )
         6           Cu  tau(   6) = (   1.0000000   0.3849002   0.2552686  )
         7           Cu  tau(   7) = (   0.5000000   0.6735753   0.2552686  )
         8           Cu  tau(   8) = (   0.8333333   0.6735753   0.2552686  )
         9           Cu  tau(   9) = (   1.1666667   0.6735753   0.2552686  )
        10           Cu  tau(  10) = (   0.0000000   0.1924501   0.5274341  )
        11           Cu  tau(  11) = (   0.3333333   0.1924501   0.5274341  )
        12           Cu  tau(  12) = (   0.6666667   0.1924501   0.5274341  )
        13           Cu  tau(  13) = (   0.1666667   0.4811252   0.5274341  )
        14           Cu  tau(  14) = (   0.5000000   0.4811252   0.5274341  )
        15           Cu  tau(  15) = (   0.8333333   0.4811252   0.5274341  )
        16           Cu  tau(  16) = (   0.3333333   0.7698004   0.5274341  )
        17           Cu  tau(  17) = (   0.6666667   0.7698004   0.5274341  )
        18           Cu  tau(  18) = (   1.0000000   0.7698004   0.5274341  )
        19           Cu  tau(  19) = (   0.0000000   0.0000000   0.7995997  )
        20           Cu  tau(  20) = (   0.3333333   0.0000000   0.7995997  )
        21           Cu  tau(  21) = (   0.6666667   0.0000000   0.7995997  )
        22           Cu  tau(  22) = (   0.1666667   0.2886751   0.7995997  )
        23           Cu  tau(  23) = (   0.5000000   0.2886751   0.7995997  )
        24           Cu  tau(  24) = (   0.8333333   0.2886751   0.7995997  )
        25           Cu  tau(  25) = (   0.3333333   0.5773503   0.7995997  )
        26           Cu  tau(  26) = (   0.6666667   0.5773503   0.7995997  )
        27           Cu  tau(  27) = (   1.0000000   0.5773503   0.7995997  )
        28           Cu  tau(  28) = (   0.1666659   0.0962246   1.0691130  )
        29           Cu  tau(  29) = (   0.5000000   0.0962241   1.0691104  )
        30           Cu  tau(  30) = (   0.8333341   0.0962246   1.0691130  )
        31           Cu  tau(  31) = (   0.3333325   0.3849006   1.0691104  )
        32           Cu  tau(  32) = (   0.6666675   0.3849006   1.0691104  )
        33           Cu  tau(  33) = (   1.0000000   0.3849003   1.0691143  )
        34           Cu  tau(  34) = (   0.5000000   0.6735762   1.0691130  )
        35           Cu  tau(  35) = (   0.8333334   0.6735753   1.0691143  )
        36           Cu  tau(  36) = (   1.1666666   0.6735753   1.0691143  )
        37           Cu  tau(  37) = (   0.0000000   0.1924486   1.3387540  )
        38           Cu  tau(  38) = (   0.3333330   0.1924499   1.3387465  )
        39           Cu  tau(  39) = (   0.6666670   0.1924499   1.3387465  )
        40           Cu  tau(  40) = (   0.1666676   0.4811247   1.3387504  )
        41           Cu  tau(  41) = (   0.5000000   0.4811256   1.3387465  )
        42           Cu  tau(  42) = (   0.8333324   0.4811247   1.3387504  )
        43           Cu  tau(  43) = (   0.3333346   0.7698011   1.3387540  )
        44           Cu  tau(  44) = (   0.6666654   0.7698011   1.3387540  )
        45           Cu  tau(  45) = (   1.0000000   0.7698014   1.3387504  )
        46           Cu  tau(  46) = (   0.0000000   0.0000000   1.6083750  )
        47           Cu  tau(  47) = (   0.3333333   0.0000005   1.6083624  )
        48           Cu  tau(  48) = (   0.6666667   0.0000005   1.6083624  )
        49           Cu  tau(  49) = (   0.1666671   0.2886748   1.6083624  )
        50           Cu  tau(  50) = (   0.5000000   0.2886751   1.6083553  )
        51           Cu  tau(  51) = (   0.8333329   0.2886748   1.6083624  )
        52           Cu  tau(  52) = (   0.3333338   0.5773500   1.6083624  )
        53           Cu  tau(  53) = (   0.6666662   0.5773500   1.6083624  )
        54           Cu  tau(  54) = (   1.0000000   0.5773503   1.6083570  )
        55           C   tau(  55) = (   0.6567407   0.3959883   1.9465488  )
        56           C   tau(  56) = (   0.5046394   0.3028152   1.9465487  )
        57           C   tau(  57) = (   0.3478975   0.3879497   1.9465488  )
        58           C   tau(  58) = (   0.3432593   0.5662630   1.9465488  )
        59           C   tau(  59) = (   0.4953606   0.6594361   1.9465487  )
        60           C   tau(  60) = (   0.6521025   0.5743016   1.9465488  )
        61           H   tau(  61) = (   0.7789959   0.3295665   1.9466270  )
        62           H   tau(  62) = (   0.5082587   0.1637263   1.9466271  )
        63           H   tau(  63) = (   0.2292624   0.3152577   1.9466270  )
        64           H   tau(  64) = (   0.2210041   0.6326847   1.9466270  )
        65           H   tau(  65) = (   0.4917413   0.7985249   1.9466271  )
        66           H   tau(  66) = (   0.7707376   0.6469936   1.9466270  )

     number of k points=    10  gaussian smearing, width (Ry)=  0.0200
                       cart. coord. in units 2pi/alat
        k(    1) = (   0.0000000   0.0000000   0.0000000), wk =   0.1250000
        k(    2) = (   0.0000000   0.2886751   0.0000000), wk =   0.2500000
        k(    3) = (   0.0000000  -0.5773503   0.0000000), wk =   0.1250000
        k(    4) = (   0.2500000  -0.7216878   0.0000000), wk =   0.2500000
        k(    5) = (  -0.2500000   0.1443376   0.0000000), wk =   0.2500000
        k(    6) = (   0.2500000   0.1443376   0.0000000), wk =   0.2500000
        k(    7) = (   0.5000000  -0.2886751   0.0000000), wk =   0.1250000
        k(    8) = (  -0.5000000  -0.2886751   0.0000000), wk =   0.1250000
        k(    9) = (  -0.2500000  -0.7216878   0.0000000), wk =   0.2500000
        k(   10) = (  -0.5000000  -0.5773503   0.0000000), wk =   0.2500000

     Dense  grid:  2552337 G-vectors     FFT dimensions: ( 120, 120, 432)

     Smooth grid:   491295 G-vectors     FFT dimensions: (  72,  72, 243)

     Estimated max dynamical RAM per process >       1.14 GB

     Estimated total dynamical RAM >      18.26 GB

     Initial potential from superposition of free atoms
     Check: negative starting charge=   -0.000842

     starting charge 1001.99960, renormalised to 1056.00000

     negative rho (up, down):  8.872E-04 0.000E+00


     %%%%%%%%%%%%%%%%%%%%%%%%%%%%%%%%%%%%%%%%%%%%%%%%%%%%%%%%%%%%%%%%%%%%%%%%
     %                                                                      %
     % You are using vdW-DF, which was implemented by the Thonhauser group. %
     % Please cite the following two papers that made this development      %
     % possible and the two reviews that describe the various versions:     %
     %                                                                      %
     %   T. Thonhauser et al., PRL 115, 136402 (2015).                      %
     %   T. Thonhauser et al., PRB 76, 125112 (2007).                       %
     %   K. Berland et al., Rep. Prog. Phys. 78, 066501 (2015).             %
     %   D.C. Langreth et al., J. Phys.: Condens. Matter 21, 084203 (2009). %
     %                                                                      %
     %                                                                      %
     % If you are calculating the stress with vdW-DF, please also cite:     %
     %                                                                      %
     %   R. Sabatini et al., J. Phys.: Condens. Matter 24, 424209 (2012).   %
     %                                                                      %
     %%%%%%%%%%%%%%%%%%%%%%%%%%%%%%%%%%%%%%%%%%%%%%%%%%%%%%%%%%%%%%%%%%%%%%%%


     Starting wfcs are  732 randomized atomic wfcs

     total cpu time spent up to now is       88.3 secs

     Self-consistent Calculation

     iteration #  1     ecut=    50.00 Ry     beta= 0.30
     Davidson diagonalization with overlap
     ethr =  1.00E-02,  avg # of iterations =  6.0

     negative rho (up, down):  4.923E-04 0.000E+00

     total cpu time spent up to now is     1452.2 secs

     total energy              =  -18792.39017128 Ry
     Harris-Foulkes estimate   =  -22013.87303189 Ry
     estimated scf accuracy    <    6366.36174814 Ry

     iteration #  2     ecut=    50.00 Ry     beta= 0.30
     Davidson diagonalization with overlap
     c_bands:  1 eigenvalues not converged
     ethr =  1.00E-02,  avg # of iterations = 18.6

     negative rho (up, down):  5.349E-04 0.000E+00

     total cpu time spent up to now is     4252.3 secs

     total energy              =  -19195.42157754 Ry
     Harris-Foulkes estimate   =  -39083.58649233 Ry
     estimated scf accuracy    <  275900.95326895 Ry

     iteration #  3     ecut=    50.00 Ry     beta= 0.30
     Davidson diagonalization with overlap
     ethr =  1.00E-02,  avg # of iterations =  7.8

     negative rho (up, down):  6.081E-04 0.000E+00

     total cpu time spent up to now is     5924.1 secs

     total energy              =  -21486.65082915 Ry
     Harris-Foulkes estimate   =  -23571.06615418 Ry
     estimated scf accuracy    <   58367.76803745 Ry

     iteration #  4     ecut=    50.00 Ry     beta= 0.30
     Davidson diagonalization with overlap
     ethr =  1.00E-02,  avg # of iterations =  7.2

     negative rho (up, down):  7.448E-04 0.000E+00

     total cpu time spent up to now is     7516.0 secs

     total energy              =  -21648.46802672 Ry
     Harris-Foulkes estimate   =  -22150.84551208 Ry
     estimated scf accuracy    <   15525.13452608 Ry

     iteration #  5     ecut=    50.00 Ry     beta= 0.30
     Davidson diagonalization with overlap
     ethr =  1.00E-02,  avg # of iterations =  6.0

     negative rho (up, down):  8.140E-04 0.000E+00

     total cpu time spent up to now is     8647.1 secs

     total energy              =  -21799.39111602 Ry
     Harris-Foulkes estimate   =  -22224.63486967 Ry
     estimated scf accuracy    <    8565.55353692 Ry

     iteration #  6     ecut=    50.00 Ry     beta= 0.30
     Davidson diagonalization with overlap
     ethr =  1.00E-02,  avg # of iterations =  6.8

     negative rho (up, down):  9.590E-04 0.000E+00

     total cpu time spent up to now is     9743.0 secs

     total energy              =  -21900.85693225 Ry
     Harris-Foulkes estimate   =  -21970.00402708 Ry
     estimated scf accuracy    <    2399.52738442 Ry

     iteration #  7     ecut=    50.00 Ry     beta= 0.30
     Davidson diagonalization with overlap
     ethr =  1.00E-02,  avg # of iterations =  2.4

     negative rho (up, down):  1.131E-03 0.000E+00

     total cpu time spent up to now is     9999.0 secs

     total energy              =  -21913.42067896 Ry
     Harris-Foulkes estimate   =  -21939.26755873 Ry
     estimated scf accuracy    <     254.17721583 Ry

     iteration #  8     ecut=    50.00 Ry     beta= 0.30
     Davidson diagonalization with overlap
     ethr =  1.00E-02,  avg # of iterations =  3.0

     negative rho (up, down):  1.258E-03 0.000E+00

     total cpu time spent up to now is    10267.5 secs

     total energy              =  -21916.87405169 Ry
     Harris-Foulkes estimate   =  -21920.90847852 Ry
     estimated scf accuracy    <     100.63373097 Ry

     iteration #  9     ecut=    50.00 Ry     beta= 0.30
     Davidson diagonalization with overlap
     ethr =  9.53E-03,  avg # of iterations =  1.0

     negative rho (up, down):  1.383E-03 0.000E+00

     total cpu time spent up to now is    10473.5 secs

     total energy              =  -21910.08570327 Ry
     Harris-Foulkes estimate   =  -21917.73604634 Ry
     estimated scf accuracy    <     109.96185695 Ry

     iteration # 10     ecut=    50.00 Ry     beta= 0.30
     Davidson diagonalization with overlap
     ethr =  9.53E-03,  avg # of iterations =  1.0

     negative rho (up, down):  1.779E-03 0.000E+00

     total cpu time spent up to now is    10671.9 secs

     total energy              =  -21893.46045216 Ry
     Harris-Foulkes estimate   =  -21911.98414911 Ry
     estimated scf accuracy    <      91.04879504 Ry

     iteration # 11     ecut=    50.00 Ry     beta= 0.30
     Davidson diagonalization with overlap
     ethr =  8.62E-03,  avg # of iterations =  3.9

     negative rho (up, down):  1.142E-04 0.000E+00

     total cpu time spent up to now is    11107.1 secs

     total energy              =  -21899.08645047 Ry
     Harris-Foulkes estimate   =  -21926.31844154 Ry
     estimated scf accuracy    <     659.53540773 Ry

     iteration # 12     ecut=    50.00 Ry     beta= 0.30
     Davidson diagonalization with overlap
     ethr =  8.62E-03,  avg # of iterations =  1.7

     negative rho (up, down):  1.170E-04 0.000E+00

     total cpu time spent up to now is    11315.5 secs

     total energy              =  -21900.37345702 Ry
     Harris-Foulkes estimate   =  -21909.17532804 Ry
     estimated scf accuracy    <      95.72303055 Ry

     iteration # 13     ecut=    50.00 Ry     beta= 0.30
     Davidson diagonalization with overlap
     ethr =  8.62E-03,  avg # of iterations =  2.6

     negative rho (up, down):  1.264E-04 0.000E+00

     total cpu time spent up to now is    11560.6 secs

     total energy              =  -21902.10279948 Ry
     Harris-Foulkes estimate   =  -21904.49919298 Ry
     estimated scf accuracy    <      11.81690421 Ry

     iteration # 14     ecut=    50.00 Ry     beta= 0.30
     Davidson diagonalization with overlap
     ethr =  1.12E-03,  avg # of iterations =  5.0

     negative rho (up, down):  1.248E-04 0.000E+00

     total cpu time spent up to now is    11948.0 secs

     total energy              =  -21904.02651519 Ry
     Harris-Foulkes estimate   =  -21904.68174383 Ry
     estimated scf accuracy    <      11.82479218 Ry

     iteration # 15     ecut=    50.00 Ry     beta= 0.30
     Davidson diagonalization with overlap
     ethr =  1.12E-03,  avg # of iterations =  1.0

     negative rho (up, down):  1.465E-04 0.000E+00

     total cpu time spent up to now is    12146.5 secs

     total energy              =  -21903.92065671 Ry
     Harris-Foulkes estimate   =  -21904.32677073 Ry
     estimated scf accuracy    <       5.67171930 Ry

     iteration # 16     ecut=    50.00 Ry     beta= 0.30
     Davidson diagonalization with overlap
     ethr =  5.37E-04,  avg # of iterations =  1.8

     negative rho (up, down):  1.713E-04 0.000E+00

     total cpu time spent up to now is    12355.1 secs

     total energy              =  -21903.87763518 Ry
     Harris-Foulkes estimate   =  -21904.05328075 Ry
     estimated scf accuracy    <       3.80874360 Ry

     iteration # 17     ecut=    50.00 Ry     beta= 0.30
     Davidson diagonalization with overlap
     ethr =  3.61E-04,  avg # of iterations =  4.6

     negative rho (up, down):  2.633E-04 0.000E+00

     total cpu time spent up to now is    12647.2 secs

     total energy              =  -21903.74669359 Ry
     Harris-Foulkes estimate   =  -21903.92184056 Ry
     estimated scf accuracy    <       1.55865183 Ry

     iteration # 18     ecut=    50.00 Ry     beta= 0.30
     Davidson diagonalization with overlap
     ethr =  1.48E-04,  avg # of iterations =  7.2

     negative rho (up, down):  3.512E-04 0.000E+00

     total cpu time spent up to now is    13074.0 secs

     total energy              =  -21903.74019708 Ry
     Harris-Foulkes estimate   =  -21903.80376196 Ry
     estimated scf accuracy    <       0.72350178 Ry

     iteration # 19     ecut=    50.00 Ry     beta= 0.30
     Davidson diagonalization with overlap
     ethr =  6.85E-05,  avg # of iterations =  5.7

     negative rho (up, down):  4.242E-04 0.000E+00

     total cpu time spent up to now is    13397.3 secs

     total energy              =  -21903.74746213 Ry
     Harris-Foulkes estimate   =  -21903.76225661 Ry
     estimated scf accuracy    <       0.17301736 Ry

     iteration # 20     ecut=    50.00 Ry     beta= 0.30
     Davidson diagonalization with overlap
     ethr =  1.64E-05,  avg # of iterations =  8.0

     negative rho (up, down):  7.152E-04 0.000E+00

     total cpu time spent up to now is    13834.6 secs

     total energy              =  -21903.69229882 Ry
     Harris-Foulkes estimate   =  -21903.75575923 Ry
     estimated scf accuracy    <       0.35513758 Ry

     iteration # 21     ecut=    50.00 Ry     beta= 0.30
     Davidson diagonalization with overlap
     ethr =  1.64E-05,  avg # of iterations =  6.9

     negative rho (up, down):  7.505E-04 0.000E+00

     total cpu time spent up to now is    14306.0 secs

     total energy              =  -21903.69651880 Ry
     Harris-Foulkes estimate   =  -21903.76223362 Ry
     estimated scf accuracy    <       0.83166056 Ry

     iteration # 22     ecut=    50.00 Ry     beta= 0.30
     Davidson diagonalization with overlap
     ethr =  1.64E-05,  avg # of iterations =  4.3

     negative rho (up, down):  8.443E-04 0.000E+00

     total cpu time spent up to now is    14622.6 secs

     total energy              =  -21903.72775250 Ry
     Harris-Foulkes estimate   =  -21903.73196651 Ry
     estimated scf accuracy    <       0.02451870 Ry

     iteration # 23     ecut=    50.00 Ry     beta= 0.30
     Davidson diagonalization with overlap
     ethr =  2.32E-06,  avg # of iterations =  8.8

     negative rho (up, down):  9.948E-04 0.000E+00

     total cpu time spent up to now is    15131.2 secs

     total energy              =  -21903.72858365 Ry
     Harris-Foulkes estimate   =  -21903.73041116 Ry
     estimated scf accuracy    <       0.00851252 Ry

     iteration # 24     ecut=    50.00 Ry     beta= 0.30
     Davidson diagonalization with overlap
     ethr =  8.06E-07,  avg # of iterations =  8.0

     negative rho (up, down):  1.194E-03 0.000E+00

     total cpu time spent up to now is    15604.2 secs

     total energy              =  -21903.72872494 Ry
     Harris-Foulkes estimate   =  -21903.72980010 Ry
     estimated scf accuracy    <       0.01414258 Ry

     iteration # 25     ecut=    50.00 Ry     beta= 0.30
     Davidson diagonalization with overlap
     ethr =  8.06E-07,  avg # of iterations =  3.9

     negative rho (up, down):  1.506E-03 0.000E+00

     total cpu time spent up to now is    15913.4 secs

     total energy              =  -21903.72925002 Ry
     Harris-Foulkes estimate   =  -21903.72935271 Ry
     estimated scf accuracy    <       0.00168583 Ry

     iteration # 26     ecut=    50.00 Ry     beta= 0.30
     Davidson diagonalization with overlap
     ethr =  1.60E-07,  avg # of iterations =  7.7

     negative rho (up, down):  1.803E-03 0.000E+00

     total cpu time spent up to now is    16370.8 secs

     total energy              =  -21903.72935539 Ry
     Harris-Foulkes estimate   =  -21903.72941244 Ry
     estimated scf accuracy    <       0.00080568 Ry

     iteration # 27     ecut=    50.00 Ry     beta= 0.30
     Davidson diagonalization with overlap
     ethr =  7.63E-08,  avg # of iterations = 10.0

     negative rho (up, down):  2.036E-03 0.000E+00

     total cpu time spent up to now is    16887.5 secs

     total energy              =  -21903.72942561 Ry
     Harris-Foulkes estimate   =  -21903.72944757 Ry
     estimated scf accuracy    <       0.00032278 Ry

     iteration # 28     ecut=    50.00 Ry     beta= 0.30
     Davidson diagonalization with overlap
     ethr =  3.06E-08,  avg # of iterations =  2.3

     negative rho (up, down):  2.179E-03 0.000E+00

     total cpu time spent up to now is    17128.0 secs

     total energy              =  -21903.72944642 Ry
     Harris-Foulkes estimate   =  -21903.72947057 Ry
     estimated scf accuracy    <       0.00029016 Ry

     iteration # 29     ecut=    50.00 Ry     beta= 0.30
     Davidson diagonalization with overlap
     ethr =  2.75E-08,  avg # of iterations =  1.8

     negative rho (up, down):  2.361E-03 0.000E+00

     total cpu time spent up to now is    17353.6 secs

     total energy              =  -21903.72946820 Ry
     Harris-Foulkes estimate   =  -21903.72946986 Ry
     estimated scf accuracy    <       0.00011531 Ry

     iteration # 30     ecut=    50.00 Ry     beta= 0.30
     Davidson diagonalization with overlap
     ethr =  1.09E-08,  avg # of iterations =  2.9

     negative rho (up, down):  2.475E-03 0.000E+00

     total cpu time spent up to now is    17616.5 secs

     total energy              =  -21903.72947361 Ry
     Harris-Foulkes estimate   =  -21903.72947404 Ry
     estimated scf accuracy    <       0.00002506 Ry

     iteration # 31     ecut=    50.00 Ry     beta= 0.30
     Davidson diagonalization with overlap
     ethr =  2.37E-09,  avg # of iterations =  2.1

     negative rho (up, down):  2.594E-03 0.000E+00

     total cpu time spent up to now is    17856.6 secs

     total energy              =  -21903.72947509 Ry
     Harris-Foulkes estimate   =  -21903.72947512 Ry
     estimated scf accuracy    <       0.00000717 Ry

     iteration # 32     ecut=    50.00 Ry     beta= 0.30
     Davidson diagonalization with overlap
     ethr =  6.79E-10,  avg # of iterations =  2.0

     negative rho (up, down):  2.665E-03 0.000E+00

     total cpu time spent up to now is    18086.1 secs

     total energy              =  -21903.72947524 Ry
     Harris-Foulkes estimate   =  -21903.72947561 Ry
     estimated scf accuracy    <       0.00000112 Ry

     iteration # 33     ecut=    50.00 Ry     beta= 0.30
     Davidson diagonalization with overlap
     ethr =  1.06E-10,  avg # of iterations =  2.4

     negative rho (up, down):  2.677E-03 0.000E+00

     total cpu time spent up to now is    18346.0 secs

     total energy              =  -21903.72947525 Ry
     Harris-Foulkes estimate   =  -21903.72947545 Ry
     estimated scf accuracy    <       0.00000082 Ry

     iteration # 34     ecut=    50.00 Ry     beta= 0.30
     Davidson diagonalization with overlap
     ethr =  7.76E-11,  avg # of iterations =  2.0

     negative rho (up, down):  2.693E-03 0.000E+00

     total cpu time spent up to now is    18574.7 secs

     total energy              =  -21903.72947518 Ry
     Harris-Foulkes estimate   =  -21903.72947535 Ry
     estimated scf accuracy    <       0.00000039 Ry

     iteration # 35     ecut=    50.00 Ry     beta= 0.30
     Davidson diagonalization with overlap
     ethr =  3.65E-11,  avg # of iterations =  2.0

     negative rho (up, down):  2.710E-03 0.000E+00

     total cpu time spent up to now is    18803.5 secs

     total energy              =  -21903.72947503 Ry
     Harris-Foulkes estimate   =  -21903.72947528 Ry
     estimated scf accuracy    <       0.00000210 Ry

     iteration # 36     ecut=    50.00 Ry     beta= 0.30
     Davidson diagonalization with overlap
     ethr =  3.65E-11,  avg # of iterations =  2.0

     negative rho (up, down):  2.718E-03 0.000E+00

     total cpu time spent up to now is    19036.3 secs

     total energy              =  -21903.72947502 Ry
     Harris-Foulkes estimate   =  -21903.72947510 Ry
     estimated scf accuracy    <       0.00000004 Ry

     iteration # 37     ecut=    50.00 Ry     beta= 0.30
     Davidson diagonalization with overlap
     ethr =  4.25E-12,  avg # of iterations =  2.0

     negative rho (up, down):  2.723E-03 0.000E+00

     total cpu time spent up to now is    19278.5 secs

     total energy              =  -21903.72947497 Ry
     Harris-Foulkes estimate   =  -21903.72947502 Ry
     estimated scf accuracy    <       0.00000002 Ry

     iteration # 38     ecut=    50.00 Ry     beta= 0.30
     Davidson diagonalization with overlap
     ethr =  1.53E-12,  avg # of iterations =  2.8

     negative rho (up, down):  2.725E-03 0.000E+00

     total cpu time spent up to now is    19534.6 secs

     total energy              =  -21903.72947496 Ry
     Harris-Foulkes estimate   =  -21903.72947497 Ry
     estimated scf accuracy    <       0.00000001 Ry

     iteration # 39     ecut=    50.00 Ry     beta= 0.30
     Davidson diagonalization with overlap
     ethr =  1.04E-12,  avg # of iterations =  2.0

     negative rho (up, down):  2.728E-03 0.000E+00

     total cpu time spent up to now is    19752.8 secs

     End of self-consistent calculation

          k = 0.0000 0.0000 0.0000 ( 61453 PWs)   bands (ev):

  -107.6643-107.6490-107.6446-107.6446-107.6429-107.6410-107.6409-107.6409
  -107.6389-107.6384-107.6384-107.6384-107.6377-107.6377-107.6367-107.6367
  -107.6358-107.6354-107.6354-107.6340-107.6335-107.6318-107.6318-107.6294
  -107.6275-107.6255-107.6255-107.6253-107.6230-107.6230-107.6226-107.6226
  -107.6214-107.6206-107.6144-107.6062-107.5699-107.5673-107.5673-107.4772
  -107.4747-107.4747-107.4396-107.4371-107.4371-107.3878-107.3836-107.3836
  -107.3831-107.3817-107.3817-107.3813-107.3792-107.3792 -65.1082 -65.0989
   -65.0902 -65.0902 -65.0898 -65.0898 -65.0885 -65.0849 -65.0849 -65.0833
   -65.0819 -65.0819 -65.0807 -65.0799 -65.0799 -65.0790 -65.0778 -65.0776
   -65.0776 -65.0770 -65.0745 -65.0745 -65.0705 -65.0686 -65.0686 -65.0683
   -65.0669 -65.0669 -65.0658 -65.0645 -65.0645 -65.0640 -65.0640 -65.0634
   -65.0628 -65.0609 -65.0609 -65.0606 -65.0595 -65.0595 -65.0582 -65.0572
   -65.0568 -65.0568 -65.0550 -65.0550 -65.0540 -65.0521 -65.0521 -65.0512
   -65.0499 -65.0499 -65.0499 -65.0495 -65.0495 -65.0479 -65.0435 -65.0422
   -65.0422 -65.0418 -65.0418 -65.0408 -65.0400 -65.0400 -65.0392 -65.0391
   -65.0391 -65.0372 -65.0372 -65.0371 -65.0362 -65.0358 -65.0358 -65.0344
   -65.0318 -65.0315 -65.0315 -65.0314 -65.0310 -65.0310 -65.0296 -65.0282
   -65.0282 -65.0277 -65.0269 -65.0269 -65.0255 -65.0253 -65.0253 -65.0231
   -65.0231 -65.0229 -65.0228 -65.0226 -65.0204 -65.0204 -65.0176 -65.0176
   -65.0174 -65.0149 -65.0147 -65.0147 -65.0118 -65.0118 -65.0092 -65.0092
   -65.0073 -65.0073 -65.0048 -65.0048 -65.0042 -64.9960 -64.9822 -64.9822
   -64.9729 -64.9696 -64.9696 -64.9251 -64.9229 -64.9229 -64.9063 -64.8958
   -64.8958 -64.8893 -64.8795 -64.8795 -64.8654 -64.8618 -64.8596 -64.8596
   -64.8561 -64.8561 -64.8432 -64.8426 -64.8426 -64.8419 -64.8410 -64.8410
   -64.8389 -64.8389 -64.8389 -64.8384 -64.8205 -64.8183 -64.8183 -64.8071
   -64.8071 -64.8069 -64.8064 -64.8064 -64.8049 -64.7942 -64.7942 -64.7594
   -64.7555 -64.7555 -64.7550 -64.7536 -64.7536 -64.7529 -64.7509 -64.7509
   -13.3678 -10.5919 -10.5916  -6.9633  -6.9628  -5.0330  -3.9178  -3.3992
    -3.3156  -3.0543  -2.4337  -2.3884  -2.3883  -1.7046  -1.0740  -0.9537
    -0.9537  -0.9504  -0.9504  -0.9493  -0.9353  -0.5651  -0.5651  -0.5607
    -0.5607  -0.5488  -0.5372  -0.4364  -0.4362  -0.3048  -0.0839  -0.0839
    -0.0547  -0.0527  -0.0480  -0.0480  -0.0241   0.3488   0.3488   0.3959
     0.4001   0.4002   0.4116   0.6760   0.6760   0.7443   0.7443   0.7443
     0.7541   0.8582   0.8582   0.8755   0.8789   0.8789   0.8828   0.9088
     0.9088   0.9250   0.9250   0.9258   0.9289   0.9604   0.9604   0.9744
     0.9744   0.9751   0.9755   1.0169   1.0170   1.0705   1.0733   1.0884
     1.0899   1.0899   1.0948   1.0948   1.0995   1.1137   1.1137   1.1208
     1.1209   1.1252   1.1252   1.1494   1.1494   1.2139   1.2139   1.2924
     1.2924   1.3018   1.3056   1.3057   1.3100   1.3581   1.3581   1.3606
     1.3606   1.5388   1.5388   1.5443   1.5456   1.5710   1.5711   1.6891
     1.6891   1.6977   1.6977   1.7018   1.7018   1.7029   1.7068   1.7253
     1.7265   1.7279   1.7279   1.7515   1.7645   1.8151   1.8151   1.8163
     1.8201   1.8254   1.8254   1.8296   1.8304   1.8639   1.8639   1.8766
     1.8951   1.8961   1.8961   1.9005   1.9005   1.9040   1.9152   1.9152
     1.9485   1.9485   1.9537   1.9571   1.9571   1.9583   1.9586   1.9586
     1.9786   1.9798   1.9798   1.9820   1.9838   1.9838   1.9896   1.9896
     1.9910   2.0169   2.0225   2.0225   2.0239   2.0857   2.0857   2.0925
     2.0945   2.0945   2.1042   2.1310   2.1310   2.1403   2.1403   2.1628
     2.1632   2.1734   2.1744   2.1744   2.1815   2.1819   2.1820   2.1841
     2.1841   2.3359   2.3359   2.3429   2.3492   2.3888   2.3888   2.4200
     2.4243   2.4243   2.4328   2.4328   2.4353   2.4473   2.4473   2.4642
     2.4761   2.5106   2.5106   2.5201   2.5201   2.5312   2.5312   2.5450
     2.5453   2.6084   2.6100   2.6100   2.6153   2.6153   2.6247   2.6275
     2.6275   2.6319   2.6319   2.6518   2.6538   2.6538   2.6626   2.6626
     2.6637   2.6638   2.6638   2.6661   2.6811   2.6811   2.7321   2.7321
     2.8022   2.8041   2.8041   2.8075   2.8082   2.8082   2.8558   2.8574
     2.8574   2.8586   2.8678   2.8678   2.8689   2.8710   2.8724   2.8724
     2.8751   2.8751   2.9067   2.9067   2.9196   2.9292   2.9292   2.9346
     2.9346   2.9375   2.9466   2.9466   2.9477   2.9479   2.9503   2.9509
     2.9509   2.9559   2.9559   2.9587   2.9587   2.9642   2.9642   2.9644
     2.9943   3.0010   3.0010   3.0125   3.0125   3.0191   3.0191   3.0195
     3.0409   3.0424   3.0619   3.0619   3.0630   3.0630   3.0630   3.0661
     3.0764   3.0764   3.0875   3.0875   3.1045   3.1045   3.1128   3.1176
     3.1176   3.1201   3.1217   3.1241   3.1241   3.1275   3.1450   3.1450
     3.1487   3.1603   3.1603   3.1708   3.2072   3.2079   3.2079   3.2124
     3.2124   3.2129   3.2646   3.2647   4.0346   4.1055   4.1055   4.1243
     4.2474   4.2672   4.2672   4.7915   5.4812   5.4813   5.5448   5.6851
     5.7216   5.7216   6.6132   6.6134   6.9681   7.2822   7.3971   7.4244
     7.4244   7.5776   7.5776   8.0078   8.0078   8.0096   8.0101   8.0282
     8.0282   8.1950   8.3974   8.3974   8.4249   8.4249   8.4387   8.7648
     8.7854   8.8218   8.8960   8.8961   8.9790   9.0389   9.0487   9.3173
     9.3566   9.3567   9.5376   9.6815   9.6815   9.7099   9.7099   9.9475
     9.9640   9.9641  10.0614  10.0703  10.5299  10.5597  10.6784  10.6784
    10.7290  10.7290  10.8610  10.8610  11.0168  11.0168  11.0808  11.1179
    11.1179  11.1611  11.2163  11.3513  11.3514  11.4764  11.4852  11.4852
    11.5781  11.6254  11.6254  11.7853  11.8302  11.8302  11.9093  11.9093
    11.9818  12.0286  12.0286  12.0556  12.0968  12.0968  12.1082  12.2415
    12.2415  12.3050  12.3623  12.4165  12.4166  12.7101  12.7101  12.8067
    12.9125  12.9126  12.9423  13.0776  13.0778  13.1020  13.1088  13.1777
    13.2591  13.2803

          k = 0.0000 0.2887 0.0000 ( 61417 PWs)   bands (ev):

  -107.6643-107.6486-107.6452-107.6447-107.6430-107.6409-107.6407-107.6405
  -107.6390-107.6386-107.6385-107.6383-107.6376-107.6376-107.6367-107.6366
  -107.6359-107.6356-107.6354-107.6341-107.6335-107.6317-107.6316-107.6293
  -107.6276-107.6257-107.6256-107.6251-107.6235-107.6233-107.6224-107.6221
  -107.6211-107.6208-107.6144-107.6062-107.5699-107.5673-107.5673-107.4772
  -107.4747-107.4746-107.4396-107.4371-107.4371-107.3874-107.3845-107.3837
  -107.3831-107.3816-107.3814-107.3808-107.3793-107.3793 -65.1078 -65.0985
   -65.0929 -65.0920 -65.0912 -65.0905 -65.0901 -65.0886 -65.0875 -65.0862
   -65.0849 -65.0843 -65.0837 -65.0826 -65.0810 -65.0790 -65.0777 -65.0762
   -65.0758 -65.0749 -65.0731 -65.0730 -65.0728 -65.0717 -65.0707 -65.0703
   -65.0698 -65.0681 -65.0654 -65.0646 -65.0643 -65.0629 -65.0626 -65.0622
   -65.0613 -65.0600 -65.0598 -65.0576 -65.0573 -65.0570 -65.0554 -65.0549
   -65.0541 -65.0525 -65.0523 -65.0512 -65.0512 -65.0505 -65.0496 -65.0495
   -65.0479 -65.0478 -65.0472 -65.0464 -65.0462 -65.0447 -65.0441 -65.0439
   -65.0423 -65.0420 -65.0417 -65.0413 -65.0405 -65.0399 -65.0385 -65.0384
   -65.0375 -65.0370 -65.0359 -65.0357 -65.0351 -65.0350 -65.0338 -65.0337
   -65.0333 -65.0333 -65.0322 -65.0320 -65.0313 -65.0302 -65.0299 -65.0296
   -65.0291 -65.0283 -65.0280 -65.0278 -65.0266 -65.0261 -65.0259 -65.0249
   -65.0234 -65.0232 -65.0229 -65.0220 -65.0219 -65.0202 -65.0201 -65.0198
   -65.0185 -65.0162 -65.0162 -65.0149 -65.0133 -65.0120 -65.0104 -65.0095
   -65.0088 -65.0086 -65.0079 -65.0057 -65.0051 -64.9959 -64.9819 -64.9810
   -64.9728 -64.9696 -64.9694 -64.9245 -64.9233 -64.9222 -64.9071 -64.8975
   -64.8961 -64.8860 -64.8791 -64.8777 -64.8662 -64.8618 -64.8596 -64.8596
   -64.8582 -64.8565 -64.8535 -64.8483 -64.8478 -64.8465 -64.8461 -64.8349
   -64.8344 -64.8292 -64.8286 -64.8259 -64.8205 -64.8183 -64.8183 -64.8108
   -64.8105 -64.8094 -64.8067 -64.8059 -64.8023 -64.7984 -64.7953 -64.7591
   -64.7563 -64.7556 -64.7550 -64.7535 -64.7534 -64.7526 -64.7510 -64.7509
   -13.3670 -10.5954 -10.5924  -6.9661  -6.9585  -5.0037  -3.7052  -3.3701
    -3.1109  -3.0583  -2.4530  -2.3974  -2.2495  -2.0982  -1.6981  -1.5106
    -1.3894  -1.3785  -0.9574  -0.9166  -0.8815  -0.7372  -0.4901  -0.4498
    -0.3323  -0.3321  -0.2687  -0.2368  -0.1512  -0.1222  -0.0525  -0.0523
     0.0773   0.1079   0.1269   0.2154   0.2181   0.2236   0.3554   0.4009
     0.4206   0.4848   0.4867   0.6263   0.6810   0.7100   0.7193   0.7231
     0.7305   0.7556   0.7565   0.7651   0.7900   0.8105   0.8232   0.8249
     0.8326   0.8346   0.8754   0.8775   0.9044   0.9087   0.9237   0.9382
     0.9437   0.9709   0.9968   1.0106   1.0120   1.0194   1.0196   1.0341
     1.0343   1.0425   1.0481   1.0892   1.1040   1.1242   1.1825   1.1833
     1.1838   1.2134   1.2202   1.2278   1.2330   1.2633   1.2663   1.2964
     1.3034   1.3109   1.3721   1.3724   1.3871   1.4015   1.4144   1.4185
     1.4570   1.4590   1.4740   1.4962   1.5017   1.5043   1.5273   1.5746
     1.5757   1.5842   1.5885   1.6037   1.6309   1.6471   1.6535   1.6624
     1.6668   1.6800   1.7137   1.7138   1.7413   1.7712   1.7942   1.7975
     1.7976   1.8108   1.8121   1.8162   1.8435   1.8510   1.8605   1.8712
     1.8718   1.8793   1.8813   1.8864   1.8971   1.9062   1.9144   1.9337
     1.9423   1.9428   1.9459   1.9474   1.9512   1.9606   1.9615   1.9749
     1.9763   1.9819   1.9863   1.9874   2.0104   2.0132   2.0157   2.0185
     2.0228   2.0296   2.0300   2.0508   2.0524   2.0582   2.0608   2.0663
     2.1002   2.1043   2.1111   2.1223   2.1242   2.1277   2.1298   2.1374
     2.1433   2.1565   2.1571   2.1626   2.1718   2.1927   2.2089   2.2093
     2.2188   2.2280   2.2311   2.2453   2.2587   2.2763   2.2764   2.2960
     2.3090   2.3108   2.3385   2.3595   2.3632   2.3669   2.3709   2.3758
     2.4168   2.4455   2.4522   2.4598   2.4670   2.4741   2.4906   2.4934
     2.5230   2.5251   2.5287   2.5328   2.5364   2.5402   2.5475   2.5479
     2.5981   2.6036   2.6106   2.6116   2.6149   2.6374   2.6419   2.6438
     2.6500   2.6511   2.6764   2.6872   2.6916   2.6968   2.7022   2.7055
     2.7215   2.7217   2.7330   2.7410   2.7512   2.7517   2.7607   2.7643
     2.7688   2.7779   2.8295   2.8379   2.8422   2.8607   2.8623   2.8773
     2.8850   2.8864   2.8873   2.8891   2.8919   2.9007   2.9048   2.9104
     2.9168   2.9234   2.9298   2.9590   2.9688   2.9692   2.9717   2.9813
     2.9840   2.9933   2.9983   3.0082   3.0169   3.0178   3.0500   3.0502
     3.0665   3.0680   3.0731   3.0756   3.0825   3.0892   3.0901   3.0927
     3.0946   3.0960   3.1092   3.1095   3.1155   3.1161   3.1223   3.1287
     3.1487   3.1532   3.1560   3.1576   3.1596   3.1618   3.1629   3.1647
     3.1875   3.1975   3.2044   3.2102   3.2115   3.2239   3.2276   3.2433
     3.2501   3.3247   3.3950   3.4353   3.4669   3.4715   3.5866   3.6276
     3.6300   3.8794   3.9129   3.9325   3.9504   4.0246   4.2375   4.5257
     4.6786   4.8839   4.9105   5.1304   5.2222   5.2906   5.3818   5.9929
     6.0015   6.1679   6.2134   6.3606   6.3867   6.3914   6.5239   6.7629
     6.7736   7.0137   7.0308   7.0804   7.1979   7.2736   7.6186   7.8979
     7.9207   7.9439   8.0767   8.1940   8.3130   8.3896   8.4197   8.4876
     8.6100   8.7324   8.8661   8.8732   8.9907   9.0308   9.3083   9.4081
     9.4216   9.4994   9.5810   9.6933   9.8315   9.8807   9.9073  10.0219
    10.0595  10.1166  10.1832  10.2499  10.2943  10.4280  10.5531  10.5675
    10.5921  10.5962  10.6149  10.7228  10.7776  10.7889  10.8339  10.8872
    11.0454  11.0800  11.0881  11.1714  11.1743  11.2948  11.4675  11.4777
    11.5444  11.5763  11.6482  11.7497  11.8058  11.8791  11.8871  12.0444
    12.0990  12.1475  12.2277  12.2976  12.4211  12.4470  12.5502  12.5612
    12.6054  12.6716  12.7492  12.7994  12.8403  12.8575  12.9420  12.9764
    13.0053  13.0887  13.1479  13.1515  13.2319  13.3184  13.3934  13.4085
    13.4964  13.5604

          k = 0.0000-0.5774 0.0000 ( 61408 PWs)   bands (ev):

  -107.6643-107.6481-107.6459-107.6448-107.6431-107.6407-107.6405-107.6400
  -107.6394-107.6388-107.6386-107.6381-107.6376-107.6375-107.6365-107.6363
  -107.6361-107.6361-107.6354-107.6341-107.6334-107.6317-107.6315-107.6291
  -107.6277-107.6259-107.6256-107.6248-107.6239-107.6235-107.6223-107.6214
  -107.6213-107.6209-107.6144-107.6062-107.5699-107.5673-107.5673-107.4772
  -107.4747-107.4746-107.4396-107.4371-107.4371-107.3867-107.3855-107.3838
  -107.3832-107.3813-107.3812-107.3806-107.3795-107.3793 -65.1073 -65.0977
   -65.0959 -65.0945 -65.0936 -65.0912 -65.0902 -65.0892 -65.0887 -65.0875
   -65.0872 -65.0864 -65.0858 -65.0847 -65.0826 -65.0811 -65.0772 -65.0764
   -65.0763 -65.0748 -65.0745 -65.0737 -65.0733 -65.0732 -65.0721 -65.0702
   -65.0702 -65.0686 -65.0657 -65.0638 -65.0626 -65.0625 -65.0620 -65.0608
   -65.0604 -65.0579 -65.0561 -65.0553 -65.0540 -65.0535 -65.0533 -65.0527
   -65.0524 -65.0515 -65.0513 -65.0504 -65.0500 -65.0485 -65.0480 -65.0470
   -65.0464 -65.0457 -65.0457 -65.0455 -65.0443 -65.0435 -65.0433 -65.0424
   -65.0406 -65.0405 -65.0397 -65.0395 -65.0390 -65.0384 -65.0384 -65.0379
   -65.0372 -65.0370 -65.0366 -65.0356 -65.0353 -65.0351 -65.0337 -65.0334
   -65.0330 -65.0319 -65.0318 -65.0312 -65.0311 -65.0306 -65.0304 -65.0295
   -65.0288 -65.0287 -65.0283 -65.0281 -65.0276 -65.0273 -65.0264 -65.0261
   -65.0249 -65.0249 -65.0235 -65.0232 -65.0222 -65.0220 -65.0212 -65.0199
   -65.0198 -65.0192 -65.0178 -65.0168 -65.0153 -65.0151 -65.0123 -65.0100
   -65.0097 -65.0094 -65.0086 -65.0073 -65.0057 -64.9957 -64.9817 -64.9800
   -64.9727 -64.9695 -64.9693 -64.9255 -64.9219 -64.9214 -64.9080 -64.8990
   -64.8964 -64.8836 -64.8775 -64.8756 -64.8675 -64.8618 -64.8609 -64.8596
   -64.8596 -64.8576 -64.8569 -64.8505 -64.8500 -64.8492 -64.8488 -64.8313
   -64.8307 -64.8206 -64.8192 -64.8190 -64.8185 -64.8183 -64.8182 -64.8177
   -64.8109 -64.8106 -64.8096 -64.8072 -64.8070 -64.7989 -64.7977 -64.7584
   -64.7572 -64.7557 -64.7551 -64.7532 -64.7532 -64.7525 -64.7511 -64.7509
   -13.3662 -10.5989 -10.5931  -6.9694  -6.9536  -4.9733  -3.3408  -3.0843
    -3.0802  -3.0624  -2.5710  -2.5322  -2.4152  -2.4064  -1.8868  -1.5764
    -1.5461  -1.5447  -1.3501  -1.0456  -1.0210  -0.5602  -0.5361  -0.4441
    -0.4129  -0.3441  -0.2833   0.0662   0.2082   0.2524   0.2656   0.2703
     0.2718   0.2745   0.2770   0.3507   0.3682   0.4323   0.4353   0.4484
     0.4518   0.4666   0.4676   0.4708   0.4710   0.5170   0.5174   0.5221
     0.5223   0.6481   0.6582   0.6684   0.6838   0.6849   0.6868   0.7639
     0.8109   0.8528   0.8667   0.8690   0.8697   0.8718   0.8889   0.9044
     0.9078   0.9147   0.9149   1.0033   1.0038   1.0412   1.0413   1.0439
     1.0650   1.0684   1.0823   1.1353   1.1475   1.1478   1.1754   1.1782
     1.2024   1.2028   1.2416   1.2424   1.2968   1.2986   1.3005   1.3136
     1.3687   1.3697   1.4066   1.4084   1.4119   1.4167   1.4236   1.4393
     1.4467   1.4472   1.4770   1.5104   1.5152   1.5457   1.5490   1.5712
     1.5734   1.5827   1.5864   1.5993   1.6002   1.6049   1.6064   1.6501
     1.6552   1.6572   1.6622   1.6637   1.6759   1.7092   1.7185   1.7205
     1.7238   1.7322   1.7379   1.7386   1.7423   1.7538   1.7735   1.8145
     1.8332   1.8355   1.8364   1.8480   1.8587   1.8822   1.8841   1.8867
     1.8890   1.8896   1.8974   1.9190   1.9211   1.9334   1.9547   1.9559
     1.9597   1.9619   1.9790   1.9879   1.9905   1.9945   2.0217   2.0245
     2.0272   2.0343   2.0365   2.0473   2.0493   2.0550   2.0579   2.0746
     2.0829   2.1096   2.1260   2.1293   2.1724   2.1750   2.1797   2.1808
     2.1850   2.1868   2.1896   2.1927   2.1943   2.2008   2.2131   2.2168
     2.2183   2.2277   2.2320   2.2331   2.2352   2.2381   2.2387   2.3042
     2.3104   2.3149   2.3311   2.3566   2.3575   2.3684   2.3777   2.3897
     2.3970   2.3983   2.4010   2.4095   2.4210   2.4223   2.4417   2.4608
     2.4620   2.4663   2.4710   2.4774   2.4852   2.5013   2.5023   2.5049
     2.5090   2.5177   2.5229   2.5231   2.5282   2.5463   2.5465   2.6255
     2.6352   2.6508   2.6558   2.6723   2.6725   2.6840   2.6868   2.7062
     2.7093   2.7268   2.7389   2.7421   2.7558   2.7582   2.7655   2.7791
     2.7792   2.7899   2.7945   2.7980   2.8027   2.8139   2.8265   2.8283
     2.8396   2.8449   2.8545   2.8851   2.8854   2.8922   2.8935   2.8993
     2.9014   2.9074   2.9189   2.9422   2.9469   2.9663   2.9706   2.9818
     2.9822   2.9999   3.0106   3.0221   3.0254   3.0571   3.0573   3.0765
     3.0884   3.0968   3.1007   3.1174   3.1197   3.1199   3.1217   3.1222
     3.1235   3.1336   3.1571   3.1585   3.1590   3.1592   3.1597   3.1723
     3.1761   3.1817   3.1898   3.1977   3.2097   3.2108   3.2148   3.2182
     3.2189   3.2511   3.2619   3.2627   3.2712   3.2767   3.2773   3.2817
     3.2877   3.3152   3.4046   3.8893   3.9627   3.9822   4.0274   4.4213
     4.4840   4.4863   4.4865   4.4881   4.7326   4.7456   4.7485   4.7508
     5.0406   5.0887   5.1687   5.2210   5.2374   5.2845   5.3229   5.3580
     5.4243   5.5705   5.8937   6.0399   6.1328   6.1625   6.2466   6.2822
     6.3010   6.3456   6.3747   6.6884   6.8228   6.8945   6.9947   7.5683
     7.5973   7.6174   7.7902   7.8438   8.0045   8.3851   8.3916   8.4609
     8.7113   8.7242   8.7443   8.7990   8.9399   9.0211   9.0582   9.2379
     9.3495   9.3777   9.3789   9.4015   9.4612   9.5216   9.6102   9.7409
     9.8116   9.9152   9.9736  10.0555  10.1074  10.2408  10.3074  10.4026
    10.4175  10.5455  10.6370  10.6765  10.7058  10.7780  10.9303  11.0347
    11.0698  11.1011  11.2403  11.2614  11.2904  11.4307  11.4447  11.5108
    11.7873  11.7960  11.8842  12.0338  12.1623  12.2161  12.2907  12.3898
    12.3991  12.4282  12.4797  12.7076  12.7246  12.8055  12.8163  12.8964
    12.9241  13.0514  13.1466  13.1506  13.2447  13.3369  13.3659  13.3842
    13.4141  13.4360  13.4452  13.4741  13.5226  13.6537  13.6711  13.6967
    13.8849  13.8868

          k = 0.2500-0.7217 0.0000 ( 61343 PWs)   bands (ev):

  -107.6643-107.6481-107.6456-107.6452-107.6430-107.6408-107.6405-107.6400
  -107.6392-107.6389-107.6387-107.6382-107.6379-107.6370-107.6366-107.6364
  -107.6361-107.6359-107.6355-107.6341-107.6334-107.6317-107.6315-107.6291
  -107.6277-107.6259-107.6256-107.6248-107.6241-107.6234-107.6221-107.6217
  -107.6212-107.6209-107.6144-107.6062-107.5699-107.5673-107.5673-107.4772
  -107.4747-107.4746-107.4396-107.4371-107.4371-107.3868-107.3851-107.3846
  -107.3827-107.3813-107.3812-107.3807-107.3795-107.3793 -65.1073 -65.0976
   -65.0949 -65.0941 -65.0930 -65.0928 -65.0918 -65.0907 -65.0895 -65.0876
   -65.0868 -65.0861 -65.0833 -65.0820 -65.0812 -65.0806 -65.0798 -65.0788
   -65.0764 -65.0751 -65.0743 -65.0739 -65.0729 -65.0721 -65.0712 -65.0708
   -65.0694 -65.0682 -65.0666 -65.0659 -65.0635 -65.0617 -65.0610 -65.0605
   -65.0590 -65.0581 -65.0575 -65.0563 -65.0554 -65.0540 -65.0536 -65.0532
   -65.0524 -65.0518 -65.0507 -65.0504 -65.0488 -65.0475 -65.0470 -65.0464
   -65.0461 -65.0456 -65.0454 -65.0445 -65.0442 -65.0438 -65.0429 -65.0419
   -65.0415 -65.0410 -65.0402 -65.0401 -65.0394 -65.0385 -65.0376 -65.0375
   -65.0368 -65.0366 -65.0358 -65.0354 -65.0350 -65.0343 -65.0341 -65.0338
   -65.0335 -65.0326 -65.0321 -65.0315 -65.0311 -65.0305 -65.0304 -65.0301
   -65.0296 -65.0292 -65.0286 -65.0280 -65.0278 -65.0270 -65.0268 -65.0261
   -65.0250 -65.0240 -65.0236 -65.0231 -65.0227 -65.0217 -65.0216 -65.0211
   -65.0198 -65.0186 -65.0181 -65.0174 -65.0139 -65.0125 -65.0117 -65.0111
   -65.0100 -65.0094 -65.0089 -65.0078 -65.0059 -64.9956 -64.9816 -64.9800
   -64.9727 -64.9695 -64.9693 -64.9246 -64.9229 -64.9215 -64.9080 -64.8984
   -64.8968 -64.8826 -64.8784 -64.8761 -64.8672 -64.8618 -64.8602 -64.8596
   -64.8596 -64.8575 -64.8557 -64.8550 -64.8524 -64.8458 -64.8422 -64.8415
   -64.8226 -64.8206 -64.8206 -64.8195 -64.8192 -64.8183 -64.8182 -64.8140
   -64.8136 -64.8131 -64.8123 -64.8062 -64.8018 -64.8014 -64.7975 -64.7585
   -64.7569 -64.7563 -64.7547 -64.7532 -64.7532 -64.7526 -64.7511 -64.7509
   -13.3662 -10.5975 -10.5946  -6.9654  -6.9576  -4.9736  -3.3404  -3.2867
    -3.0622  -2.7168  -2.5116  -2.4938  -2.4475  -2.4182  -2.0375  -1.9044
    -1.8361  -1.5164  -1.0640  -0.9875  -0.6228  -0.5195  -0.4765  -0.4606
    -0.4508  -0.1336  -0.1203  -0.0900  -0.0591   0.1222   0.1246   0.1323
     0.2761   0.2935   0.3198   0.3208   0.3321   0.3847   0.3883   0.3927
     0.4137   0.5055   0.5105   0.5142   0.5149   0.5438   0.5684   0.6349
     0.6537   0.6626   0.6736   0.7064   0.7085   0.7098   0.7195   0.7239
     0.7453   0.7598   0.8167   0.8242   0.8465   0.8493   0.8700   0.8842
     0.8896   0.9241   0.9328   0.9474   0.9935   1.0139   1.0177   1.0343
     1.0472   1.0960   1.1077   1.1435   1.1634   1.1668   1.1774   1.1876
     1.2545   1.2652   1.2690   1.2736   1.2789   1.2906   1.3204   1.3384
     1.3456   1.3976   1.4000   1.4141   1.4195   1.4311   1.4384   1.4399
     1.4453   1.4935   1.4945   1.4999   1.5041   1.5143   1.5236   1.5412
     1.5453   1.5566   1.5602   1.5878   1.5945   1.5983   1.6099   1.6182
     1.6250   1.6540   1.6951   1.6985   1.6988   1.7054   1.7130   1.7246
     1.7443   1.7534   1.7687   1.7887   1.7932   1.7985   1.8024   1.8043
     1.8253   1.8270   1.8319   1.8432   1.8457   1.8740   1.8849   1.8867
     1.8932   1.9006   1.9065   1.9221   1.9231   1.9409   1.9439   1.9473
     1.9486   1.9594   1.9692   1.9780   2.0022   2.0153   2.0216   2.0268
     2.0320   2.0379   2.0488   2.0507   2.0622   2.0635   2.0655   2.0728
     2.0754   2.0823   2.0861   2.0893   2.1176   2.1232   2.1256   2.1290
     2.1555   2.1572   2.1595   2.1642   2.1687   2.1737   2.1756   2.1773
     2.1781   2.1808   2.2357   2.2376   2.2807   2.3021   2.3044   2.3074
     2.3139   2.3170   2.3283   2.3346   2.3562   2.3614   2.3748   2.3878
     2.4026   2.4050   2.4383   2.4419   2.4472   2.4641   2.4663   2.4725
     2.4767   2.4785   2.4822   2.4855   2.4878   2.4958   2.5140   2.5169
     2.5199   2.5493   2.5606   2.5635   2.5677   2.5796   2.5903   2.6046
     2.6078   2.6207   2.6297   2.6334   2.6398   2.6521   2.6825   2.6830
     2.6908   2.6977   2.7042   2.7208   2.7263   2.7509   2.7618   2.7689
     2.7765   2.7805   2.7903   2.8014   2.8169   2.8206   2.8299   2.8348
     2.8423   2.8440   2.8471   2.8506   2.8593   2.8676   2.8942   2.9123
     2.9222   2.9281   2.9336   2.9512   2.9735   2.9775   2.9906   3.0024
     3.0188   3.0384   3.0437   3.0493   3.0530   3.0593   3.0605   3.0910
     3.0924   3.0996   3.1012   3.1063   3.1136   3.1151   3.1191   3.1215
     3.1269   3.1283   3.1320   3.1335   3.1390   3.1466   3.1492   3.1558
     3.1605   3.1720   3.1733   3.1837   3.1980   3.2031   3.2095   3.2179
     3.2201   3.2351   3.2411   3.2495   3.2764   3.2963   3.2984   3.4697
     3.5081   3.5622   3.5640   3.6522   3.6599   3.8150   3.9794   3.9966
     4.3848   4.4484   4.4652   4.4699   4.4912   4.7406   4.8187   4.8555
     4.8703   4.8923   5.1083   5.2850   5.3237   5.3431   5.7926   5.8033
     5.8622   5.9607   6.0451   6.0691   6.0896   6.2418   6.2582   6.2852
     6.3934   6.6398   6.6446   6.7976   6.9353   6.9852   7.0620   7.1973
     7.2345   7.2563   7.3117   7.5462   7.6953   7.7796   8.0616   8.1353
     8.4628   8.6435   8.6554   8.7362   8.7615   8.8574   9.1319   9.1818
     9.3005   9.3764   9.4193   9.5455   9.5845   9.6177   9.7630   9.8024
     9.8532  10.0254  10.1430  10.1954  10.2102  10.4058  10.4265  10.5559
    10.5808  10.6626  10.8454  10.9137  11.0262  11.0670  11.1045  11.1609
    11.2212  11.3276  11.4133  11.5996  11.6272  11.6620  11.7039  11.7598
    11.8202  11.9104  11.9384  11.9523  12.0335  12.1146  12.1691  12.2546
    12.3115  12.3745  12.4881  12.5208  12.5668  12.6679  12.7049  12.7628
    12.7713  12.8122  12.9000  12.9295  12.9862  13.1018  13.1842  13.2131
    13.3327  13.3836  13.3985  13.4248  13.5429  13.5926  13.6767  13.7232
    13.7652  13.7920

          k =-0.2500 0.1443 0.0000 ( 61417 PWs)   bands (ev):

  -107.6643-107.6486-107.6452-107.6447-107.6430-107.6409-107.6407-107.6405
  -107.6390-107.6386-107.6385-107.6383-107.6376-107.6376-107.6367-107.6366
  -107.6359-107.6356-107.6354-107.6341-107.6335-107.6317-107.6316-107.6293
  -107.6276-107.6257-107.6256-107.6251-107.6235-107.6233-107.6224-107.6221
  -107.6211-107.6208-107.6144-107.6062-107.5699-107.5673-107.5673-107.4772
  -107.4747-107.4746-107.4396-107.4371-107.4371-107.3874-107.3845-107.3837
  -107.3831-107.3816-107.3814-107.3808-107.3793-107.3793 -65.1078 -65.0985
   -65.0929 -65.0920 -65.0912 -65.0905 -65.0901 -65.0886 -65.0875 -65.0862
   -65.0849 -65.0843 -65.0837 -65.0826 -65.0810 -65.0790 -65.0777 -65.0762
   -65.0758 -65.0749 -65.0731 -65.0730 -65.0728 -65.0717 -65.0707 -65.0703
   -65.0698 -65.0681 -65.0654 -65.0646 -65.0643 -65.0629 -65.0626 -65.0622
   -65.0613 -65.0600 -65.0598 -65.0576 -65.0573 -65.0570 -65.0554 -65.0549
   -65.0541 -65.0525 -65.0523 -65.0512 -65.0512 -65.0505 -65.0496 -65.0495
   -65.0479 -65.0478 -65.0472 -65.0464 -65.0462 -65.0447 -65.0441 -65.0439
   -65.0423 -65.0420 -65.0417 -65.0413 -65.0405 -65.0399 -65.0385 -65.0384
   -65.0375 -65.0370 -65.0359 -65.0357 -65.0351 -65.0350 -65.0338 -65.0337
   -65.0333 -65.0333 -65.0322 -65.0320 -65.0313 -65.0302 -65.0299 -65.0296
   -65.0291 -65.0283 -65.0280 -65.0278 -65.0266 -65.0261 -65.0259 -65.0249
   -65.0234 -65.0232 -65.0229 -65.0220 -65.0219 -65.0202 -65.0201 -65.0198
   -65.0185 -65.0162 -65.0162 -65.0149 -65.0133 -65.0120 -65.0104 -65.0095
   -65.0088 -65.0086 -65.0079 -65.0057 -65.0051 -64.9959 -64.9819 -64.9810
   -64.9728 -64.9696 -64.9694 -64.9245 -64.9233 -64.9222 -64.9071 -64.8975
   -64.8960 -64.8860 -64.8791 -64.8777 -64.8662 -64.8618 -64.8596 -64.8596
   -64.8582 -64.8565 -64.8535 -64.8483 -64.8478 -64.8465 -64.8461 -64.8349
   -64.8344 -64.8292 -64.8286 -64.8259 -64.8205 -64.8183 -64.8183 -64.8108
   -64.8105 -64.8094 -64.8067 -64.8059 -64.8023 -64.7984 -64.7953 -64.7591
   -64.7563 -64.7556 -64.7550 -64.7535 -64.7534 -64.7526 -64.7510 -64.7509
   -13.3670 -10.5952 -10.5926  -6.9665  -6.9580  -5.0037  -3.7052  -3.3701
    -3.1109  -3.0583  -2.4529  -2.3975  -2.2495  -2.0982  -1.6981  -1.5105
    -1.3894  -1.3785  -0.9574  -0.9166  -0.8815  -0.7372  -0.4899  -0.4500
    -0.3323  -0.3321  -0.2687  -0.2368  -0.1512  -0.1222  -0.0525  -0.0523
     0.0773   0.1079   0.1269   0.2154   0.2181   0.2236   0.3554   0.4009
     0.4206   0.4848   0.4867   0.6263   0.6810   0.7100   0.7193   0.7231
     0.7305   0.7556   0.7565   0.7651   0.7900   0.8105   0.8232   0.8249
     0.8326   0.8346   0.8754   0.8775   0.9044   0.9087   0.9237   0.9382
     0.9437   0.9708   0.9968   1.0106   1.0120   1.0194   1.0196   1.0341
     1.0343   1.0425   1.0481   1.0892   1.1040   1.1242   1.1825   1.1833
     1.1838   1.2134   1.2202   1.2278   1.2330   1.2632   1.2663   1.2964
     1.3034   1.3109   1.3721   1.3724   1.3871   1.4015   1.4144   1.4185
     1.4570   1.4590   1.4740   1.4962   1.5017   1.5043   1.5273   1.5746
     1.5757   1.5842   1.5885   1.6037   1.6309   1.6471   1.6535   1.6624
     1.6668   1.6800   1.7137   1.7138   1.7413   1.7712   1.7942   1.7975
     1.7976   1.8108   1.8121   1.8162   1.8435   1.8510   1.8605   1.8712
     1.8718   1.8793   1.8813   1.8864   1.8971   1.9062   1.9144   1.9337
     1.9423   1.9428   1.9459   1.9474   1.9512   1.9606   1.9615   1.9749
     1.9763   1.9819   1.9863   1.9874   2.0104   2.0132   2.0157   2.0185
     2.0228   2.0296   2.0300   2.0508   2.0524   2.0582   2.0608   2.0663
     2.1002   2.1043   2.1111   2.1223   2.1242   2.1277   2.1298   2.1373
     2.1433   2.1565   2.1571   2.1626   2.1718   2.1927   2.2089   2.2093
     2.2188   2.2280   2.2311   2.2453   2.2587   2.2763   2.2764   2.2960
     2.3090   2.3108   2.3385   2.3595   2.3632   2.3669   2.3709   2.3758
     2.4168   2.4455   2.4522   2.4598   2.4670   2.4741   2.4906   2.4934
     2.5230   2.5251   2.5287   2.5328   2.5364   2.5402   2.5475   2.5479
     2.5981   2.6036   2.6106   2.6116   2.6149   2.6374   2.6419   2.6438
     2.6500   2.6511   2.6764   2.6872   2.6916   2.6968   2.7022   2.7055
     2.7215   2.7217   2.7330   2.7410   2.7512   2.7517   2.7607   2.7643
     2.7688   2.7779   2.8295   2.8379   2.8422   2.8607   2.8623   2.8773
     2.8850   2.8864   2.8873   2.8891   2.8919   2.9007   2.9048   2.9104
     2.9168   2.9234   2.9298   2.9590   2.9688   2.9692   2.9717   2.9813
     2.9840   2.9933   2.9983   3.0082   3.0169   3.0178   3.0500   3.0502
     3.0665   3.0680   3.0731   3.0756   3.0825   3.0892   3.0901   3.0927
     3.0946   3.0960   3.1092   3.1095   3.1155   3.1161   3.1223   3.1287
     3.1487   3.1532   3.1560   3.1576   3.1596   3.1619   3.1629   3.1647
     3.1875   3.1975   3.2044   3.2102   3.2115   3.2239   3.2276   3.2433
     3.2501   3.3247   3.3950   3.4353   3.4669   3.4715   3.5866   3.6276
     3.6300   3.8794   3.9129   3.9324   3.9504   4.0246   4.2375   4.5257
     4.6786   4.8839   4.9105   5.1304   5.2222   5.2906   5.3818   5.9929
     6.0015   6.1679   6.2134   6.3606   6.3867   6.3914   6.5238   6.7630
     6.7736   7.0137   7.0308   7.0804   7.1980   7.2736   7.6186   7.8979
     7.9207   7.9439   8.0767   8.1940   8.3130   8.3896   8.4197   8.4876
     8.6100   8.7325   8.8661   8.8732   8.9906   9.0307   9.3083   9.4081
     9.4216   9.4994   9.5811   9.6933   9.8315   9.8806   9.9073  10.0219
    10.0595  10.1166  10.1832  10.2499  10.2943  10.4280  10.5531  10.5675
    10.5921  10.5962  10.6149  10.7228  10.7775  10.7889  10.8339  10.8872
    11.0454  11.0800  11.0880  11.1715  11.1743  11.2948  11.4675  11.4777
    11.5444  11.5763  11.6482  11.7497  11.8058  11.8791  11.8872  12.0444
    12.0990  12.1475  12.2277  12.2976  12.4211  12.4469  12.5502  12.5611
    12.6054  12.6716  12.7492  12.7994  12.8403  12.8575  12.9420  12.9764
    13.0053  13.0887  13.1479  13.1515  13.2319  13.3184  13.3934  13.4085
    13.4964  13.5603

          k = 0.2500 0.1443 0.0000 ( 61417 PWs)   bands (ev):

  -107.6643-107.6486-107.6452-107.6447-107.6430-107.6409-107.6407-107.6405
  -107.6390-107.6386-107.6385-107.6383-107.6376-107.6376-107.6367-107.6366
  -107.6359-107.6356-107.6354-107.6341-107.6335-107.6317-107.6316-107.6293
  -107.6276-107.6257-107.6256-107.6251-107.6235-107.6233-107.6224-107.6221
  -107.6211-107.6208-107.6144-107.6062-107.5699-107.5673-107.5673-107.4772
  -107.4747-107.4746-107.4396-107.4371-107.4371-107.3874-107.3845-107.3837
  -107.3831-107.3816-107.3814-107.3808-107.3793-107.3793 -65.1078 -65.0985
   -65.0929 -65.0920 -65.0912 -65.0905 -65.0901 -65.0886 -65.0875 -65.0862
   -65.0849 -65.0843 -65.0837 -65.0826 -65.0810 -65.0790 -65.0777 -65.0762
   -65.0758 -65.0749 -65.0731 -65.0730 -65.0728 -65.0717 -65.0707 -65.0703
   -65.0698 -65.0681 -65.0654 -65.0646 -65.0643 -65.0629 -65.0626 -65.0622
   -65.0613 -65.0600 -65.0598 -65.0576 -65.0573 -65.0570 -65.0554 -65.0549
   -65.0541 -65.0525 -65.0523 -65.0512 -65.0512 -65.0505 -65.0496 -65.0495
   -65.0479 -65.0478 -65.0472 -65.0464 -65.0462 -65.0447 -65.0441 -65.0439
   -65.0423 -65.0420 -65.0417 -65.0413 -65.0405 -65.0399 -65.0385 -65.0384
   -65.0375 -65.0370 -65.0359 -65.0357 -65.0351 -65.0350 -65.0338 -65.0337
   -65.0333 -65.0333 -65.0322 -65.0320 -65.0313 -65.0302 -65.0299 -65.0296
   -65.0291 -65.0283 -65.0280 -65.0278 -65.0266 -65.0261 -65.0259 -65.0249
   -65.0234 -65.0232 -65.0229 -65.0220 -65.0219 -65.0202 -65.0201 -65.0198
   -65.0185 -65.0162 -65.0162 -65.0149 -65.0133 -65.0120 -65.0104 -65.0095
   -65.0088 -65.0086 -65.0079 -65.0057 -65.0051 -64.9959 -64.9819 -64.9810
   -64.9728 -64.9696 -64.9694 -64.9245 -64.9233 -64.9222 -64.9071 -64.8975
   -64.8960 -64.8860 -64.8791 -64.8777 -64.8662 -64.8618 -64.8596 -64.8596
   -64.8582 -64.8565 -64.8535 -64.8483 -64.8478 -64.8465 -64.8461 -64.8349
   -64.8344 -64.8292 -64.8286 -64.8259 -64.8205 -64.8183 -64.8183 -64.8108
   -64.8105 -64.8094 -64.8067 -64.8059 -64.8023 -64.7984 -64.7953 -64.7591
   -64.7563 -64.7556 -64.7550 -64.7535 -64.7534 -64.7526 -64.7510 -64.7509
   -13.3670 -10.5952 -10.5925  -6.9664  -6.9581  -5.0037  -3.7052  -3.3701
    -3.1109  -3.0583  -2.4530  -2.3974  -2.2495  -2.0982  -1.6981  -1.5106
    -1.3894  -1.3785  -0.9574  -0.9166  -0.8815  -0.7372  -0.4900  -0.4499
    -0.3323  -0.3321  -0.2687  -0.2368  -0.1512  -0.1222  -0.0525  -0.0523
     0.0773   0.1079   0.1269   0.2154   0.2181   0.2236   0.3554   0.4009
     0.4206   0.4848   0.4867   0.6263   0.6810   0.7100   0.7193   0.7231
     0.7305   0.7556   0.7565   0.7651   0.7900   0.8105   0.8232   0.8249
     0.8326   0.8346   0.8754   0.8775   0.9044   0.9087   0.9237   0.9382
     0.9437   0.9708   0.9968   1.0106   1.0120   1.0194   1.0196   1.0341
     1.0343   1.0425   1.0481   1.0892   1.1040   1.1242   1.1825   1.1833
     1.1838   1.2134   1.2202   1.2278   1.2330   1.2632   1.2663   1.2964
     1.3034   1.3109   1.3721   1.3724   1.3871   1.4015   1.4144   1.4185
     1.4570   1.4590   1.4740   1.4962   1.5017   1.5043   1.5273   1.5746
     1.5757   1.5842   1.5885   1.6037   1.6309   1.6471   1.6535   1.6624
     1.6668   1.6800   1.7137   1.7138   1.7413   1.7712   1.7942   1.7975
     1.7976   1.8108   1.8121   1.8162   1.8435   1.8510   1.8605   1.8712
     1.8718   1.8793   1.8813   1.8864   1.8971   1.9062   1.9144   1.9337
     1.9423   1.9428   1.9459   1.9474   1.9512   1.9606   1.9615   1.9749
     1.9763   1.9819   1.9863   1.9874   2.0104   2.0132   2.0157   2.0185
     2.0228   2.0296   2.0300   2.0508   2.0524   2.0582   2.0608   2.0663
     2.1002   2.1043   2.1111   2.1223   2.1242   2.1277   2.1298   2.1373
     2.1433   2.1565   2.1571   2.1626   2.1718   2.1927   2.2089   2.2093
     2.2188   2.2280   2.2311   2.2453   2.2587   2.2763   2.2764   2.2960
     2.3090   2.3108   2.3385   2.3595   2.3632   2.3669   2.3709   2.3758
     2.4168   2.4455   2.4522   2.4598   2.4670   2.4741   2.4906   2.4934
     2.5230   2.5251   2.5287   2.5328   2.5364   2.5402   2.5475   2.5479
     2.5981   2.6036   2.6106   2.6116   2.6149   2.6374   2.6419   2.6438
     2.6500   2.6511   2.6764   2.6872   2.6916   2.6968   2.7022   2.7055
     2.7215   2.7217   2.7330   2.7410   2.7512   2.7517   2.7607   2.7643
     2.7688   2.7779   2.8295   2.8379   2.8422   2.8607   2.8623   2.8773
     2.8850   2.8864   2.8873   2.8891   2.8919   2.9007   2.9048   2.9104
     2.9168   2.9234   2.9298   2.9590   2.9688   2.9692   2.9717   2.9813
     2.9840   2.9933   2.9983   3.0082   3.0169   3.0178   3.0500   3.0502
     3.0665   3.0680   3.0731   3.0756   3.0825   3.0892   3.0901   3.0927
     3.0946   3.0960   3.1092   3.1095   3.1155   3.1161   3.1223   3.1287
     3.1487   3.1532   3.1560   3.1576   3.1596   3.1619   3.1629   3.1647
     3.1875   3.1975   3.2044   3.2102   3.2115   3.2239   3.2276   3.2433
     3.2501   3.3247   3.3950   3.4353   3.4669   3.4715   3.5866   3.6276
     3.6300   3.8794   3.9129   3.9324   3.9504   4.0246   4.2375   4.5257
     4.6786   4.8839   4.9105   5.1304   5.2222   5.2906   5.3818   5.9929
     6.0015   6.1679   6.2134   6.3606   6.3867   6.3914   6.5238   6.7630
     6.7736   7.0137   7.0308   7.0804   7.1980   7.2736   7.6186   7.8979
     7.9207   7.9439   8.0767   8.1940   8.3130   8.3896   8.4197   8.4876
     8.6100   8.7325   8.8661   8.8732   8.9907   9.0307   9.3083   9.4081
     9.4216   9.4994   9.5811   9.6933   9.8315   9.8807   9.9073  10.0219
    10.0595  10.1166  10.1832  10.2499  10.2943  10.4280  10.5531  10.5675
    10.5921  10.5962  10.6149  10.7228  10.7776  10.7889  10.8339  10.8872
    11.0454  11.0800  11.0880  11.1715  11.1743  11.2948  11.4675  11.4777
    11.5444  11.5763  11.6482  11.7497  11.8058  11.8791  11.8871  12.0444
    12.0990  12.1475  12.2277  12.2976  12.4211  12.4469  12.5502  12.5611
    12.6054  12.6716  12.7492  12.7994  12.8403  12.8575  12.9420  12.9764
    13.0053  13.0887  13.1479  13.1515  13.2319  13.3184  13.3934  13.4085
    13.4964  13.5603

          k = 0.5000-0.2887 0.0000 ( 61408 PWs)   bands (ev):

  -107.6643-107.6481-107.6459-107.6448-107.6431-107.6407-107.6405-107.6400
  -107.6394-107.6388-107.6386-107.6381-107.6376-107.6374-107.6365-107.6363
  -107.6361-107.6361-107.6354-107.6341-107.6334-107.6317-107.6315-107.6291
  -107.6277-107.6259-107.6256-107.6248-107.6239-107.6235-107.6223-107.6214
  -107.6213-107.6209-107.6144-107.6062-107.5699-107.5673-107.5673-107.4772
  -107.4747-107.4746-107.4396-107.4371-107.4371-107.3867-107.3855-107.3838
  -107.3832-107.3813-107.3812-107.3806-107.3795-107.3793 -65.1073 -65.0977
   -65.0959 -65.0945 -65.0936 -65.0912 -65.0902 -65.0892 -65.0886 -65.0875
   -65.0872 -65.0864 -65.0858 -65.0847 -65.0826 -65.0811 -65.0772 -65.0764
   -65.0763 -65.0748 -65.0745 -65.0737 -65.0733 -65.0732 -65.0721 -65.0702
   -65.0702 -65.0686 -65.0657 -65.0638 -65.0626 -65.0625 -65.0620 -65.0608
   -65.0604 -65.0579 -65.0561 -65.0553 -65.0540 -65.0535 -65.0533 -65.0527
   -65.0524 -65.0515 -65.0513 -65.0504 -65.0500 -65.0485 -65.0480 -65.0470
   -65.0464 -65.0457 -65.0457 -65.0455 -65.0443 -65.0435 -65.0433 -65.0424
   -65.0406 -65.0405 -65.0397 -65.0395 -65.0390 -65.0384 -65.0384 -65.0379
   -65.0372 -65.0369 -65.0366 -65.0356 -65.0353 -65.0351 -65.0337 -65.0334
   -65.0330 -65.0319 -65.0318 -65.0312 -65.0311 -65.0306 -65.0304 -65.0295
   -65.0288 -65.0287 -65.0283 -65.0281 -65.0276 -65.0273 -65.0264 -65.0261
   -65.0249 -65.0249 -65.0235 -65.0232 -65.0222 -65.0220 -65.0212 -65.0199
   -65.0198 -65.0192 -65.0178 -65.0168 -65.0153 -65.0151 -65.0123 -65.0100
   -65.0097 -65.0094 -65.0086 -65.0073 -65.0057 -64.9957 -64.9817 -64.9800
   -64.9727 -64.9695 -64.9693 -64.9255 -64.9219 -64.9214 -64.9080 -64.8990
   -64.8964 -64.8836 -64.8775 -64.8756 -64.8675 -64.8618 -64.8609 -64.8596
   -64.8596 -64.8576 -64.8569 -64.8505 -64.8500 -64.8492 -64.8488 -64.8313
   -64.8307 -64.8206 -64.8192 -64.8190 -64.8185 -64.8183 -64.8182 -64.8177
   -64.8109 -64.8106 -64.8096 -64.8072 -64.8070 -64.7989 -64.7977 -64.7584
   -64.7572 -64.7557 -64.7551 -64.7532 -64.7532 -64.7525 -64.7511 -64.7509
   -13.3662 -10.5987 -10.5934  -6.9698  -6.9532  -4.9733  -3.3408  -3.0843
    -3.0802  -3.0624  -2.5709  -2.5322  -2.4151  -2.4065  -1.8868  -1.5764
    -1.5461  -1.5447  -1.3501  -1.0456  -1.0210  -0.5600  -0.5361  -0.4443
    -0.4129  -0.3441  -0.2833   0.0662   0.2082   0.2524   0.2656   0.2703
     0.2718   0.2745   0.2770   0.3507   0.3682   0.4323   0.4353   0.4484
     0.4518   0.4666   0.4676   0.4708   0.4710   0.5170   0.5174   0.5221
     0.5223   0.6481   0.6582   0.6684   0.6838   0.6849   0.6868   0.7639
     0.8109   0.8528   0.8667   0.8690   0.8697   0.8718   0.8889   0.9044
     0.9078   0.9147   0.9149   1.0033   1.0038   1.0412   1.0413   1.0439
     1.0650   1.0684   1.0823   1.1354   1.1475   1.1477   1.1754   1.1782
     1.2024   1.2028   1.2416   1.2424   1.2968   1.2986   1.3005   1.3136
     1.3687   1.3697   1.4066   1.4084   1.4119   1.4167   1.4237   1.4393
     1.4467   1.4472   1.4770   1.5104   1.5152   1.5457   1.5490   1.5712
     1.5734   1.5827   1.5864   1.5993   1.6002   1.6049   1.6064   1.6501
     1.6552   1.6572   1.6622   1.6637   1.6759   1.7092   1.7185   1.7205
     1.7238   1.7322   1.7379   1.7386   1.7423   1.7537   1.7735   1.8145
     1.8333   1.8355   1.8364   1.8480   1.8587   1.8822   1.8840   1.8867
     1.8890   1.8896   1.8974   1.9190   1.9211   1.9334   1.9547   1.9559
     1.9597   1.9619   1.9791   1.9879   1.9905   1.9945   2.0217   2.0245
     2.0272   2.0343   2.0365   2.0473   2.0493   2.0550   2.0579   2.0746
     2.0829   2.1096   2.1260   2.1293   2.1724   2.1750   2.1797   2.1808
     2.1850   2.1868   2.1896   2.1927   2.1944   2.2008   2.2131   2.2168
     2.2183   2.2277   2.2320   2.2331   2.2352   2.2381   2.2387   2.3042
     2.3104   2.3149   2.3311   2.3566   2.3575   2.3683   2.3777   2.3897
     2.3970   2.3983   2.4010   2.4095   2.4210   2.4223   2.4417   2.4608
     2.4620   2.4663   2.4710   2.4774   2.4852   2.5013   2.5023   2.5049
     2.5090   2.5177   2.5229   2.5231   2.5282   2.5463   2.5465   2.6255
     2.6352   2.6508   2.6558   2.6723   2.6725   2.6840   2.6868   2.7062
     2.7093   2.7268   2.7389   2.7421   2.7558   2.7582   2.7655   2.7791
     2.7792   2.7899   2.7945   2.7980   2.8027   2.8139   2.8265   2.8283
     2.8396   2.8449   2.8545   2.8851   2.8854   2.8922   2.8935   2.8993
     2.9014   2.9074   2.9189   2.9422   2.9469   2.9663   2.9706   2.9818
     2.9822   2.9999   3.0106   3.0221   3.0254   3.0571   3.0573   3.0765
     3.0884   3.0968   3.1007   3.1174   3.1197   3.1199   3.1217   3.1222
     3.1235   3.1336   3.1571   3.1585   3.1590   3.1593   3.1597   3.1723
     3.1761   3.1817   3.1898   3.1976   3.2097   3.2108   3.2148   3.2182
     3.2189   3.2511   3.2619   3.2627   3.2712   3.2767   3.2773   3.2817
     3.2877   3.3152   3.4046   3.8893   3.9627   3.9822   4.0274   4.4213
     4.4840   4.4863   4.4865   4.4881   4.7326   4.7456   4.7485   4.7508
     5.0406   5.0887   5.1687   5.2210   5.2374   5.2845   5.3229   5.3580
     5.4243   5.5705   5.8937   6.0399   6.1328   6.1625   6.2466   6.2822
     6.3010   6.3456   6.3748   6.6883   6.8229   6.8945   6.9947   7.5683
     7.5973   7.6174   7.7903   7.8438   8.0044   8.3851   8.3916   8.4609
     8.7113   8.7242   8.7443   8.7990   8.9399   9.0211   9.0582   9.2378
     9.3495   9.3777   9.3789   9.4015   9.4613   9.5217   9.6102   9.7409
     9.8116   9.9152   9.9736  10.0555  10.1074  10.2408  10.3074  10.4026
    10.4175  10.5455  10.6370  10.6766  10.7058  10.7779  10.9303  11.0348
    11.0698  11.1012  11.2403  11.2614  11.2903  11.4307  11.4447  11.5109
    11.7873  11.7961  11.8841  12.0337  12.1624  12.2162  12.2909  12.3899
    12.3991  12.4282  12.4797  12.7077  12.7245  12.8054  12.8163  12.8963
    12.9240  13.0515  13.1466  13.1506  13.2447  13.3369  13.3659  13.3842
    13.4141  13.4360  13.4452  13.4741  13.5228  13.6537  13.6711  13.6967
    13.8852  13.8868

          k =-0.5000-0.2887 0.0000 ( 61408 PWs)   bands (ev):

  -107.6643-107.6481-107.6459-107.6448-107.6431-107.6407-107.6405-107.6400
  -107.6394-107.6388-107.6386-107.6381-107.6376-107.6374-107.6365-107.6363
  -107.6361-107.6361-107.6354-107.6341-107.6334-107.6317-107.6315-107.6291
  -107.6277-107.6259-107.6256-107.6248-107.6239-107.6235-107.6223-107.6214
  -107.6213-107.6209-107.6144-107.6062-107.5699-107.5673-107.5673-107.4772
  -107.4747-107.4746-107.4396-107.4371-107.4371-107.3867-107.3855-107.3838
  -107.3832-107.3813-107.3812-107.3806-107.3795-107.3793 -65.1073 -65.0977
   -65.0959 -65.0945 -65.0936 -65.0912 -65.0902 -65.0892 -65.0886 -65.0875
   -65.0872 -65.0864 -65.0858 -65.0847 -65.0826 -65.0811 -65.0772 -65.0764
   -65.0763 -65.0748 -65.0745 -65.0737 -65.0733 -65.0732 -65.0721 -65.0702
   -65.0702 -65.0686 -65.0657 -65.0638 -65.0626 -65.0625 -65.0620 -65.0608
   -65.0604 -65.0579 -65.0561 -65.0553 -65.0540 -65.0535 -65.0533 -65.0527
   -65.0524 -65.0515 -65.0513 -65.0504 -65.0500 -65.0485 -65.0480 -65.0470
   -65.0464 -65.0457 -65.0457 -65.0455 -65.0443 -65.0435 -65.0433 -65.0424
   -65.0406 -65.0405 -65.0397 -65.0395 -65.0390 -65.0384 -65.0384 -65.0379
   -65.0372 -65.0369 -65.0366 -65.0356 -65.0353 -65.0351 -65.0337 -65.0334
   -65.0330 -65.0319 -65.0318 -65.0312 -65.0311 -65.0306 -65.0305 -65.0295
   -65.0288 -65.0287 -65.0283 -65.0281 -65.0276 -65.0273 -65.0264 -65.0261
   -65.0249 -65.0249 -65.0235 -65.0232 -65.0222 -65.0220 -65.0212 -65.0199
   -65.0198 -65.0192 -65.0178 -65.0168 -65.0153 -65.0151 -65.0123 -65.0100
   -65.0097 -65.0094 -65.0086 -65.0073 -65.0057 -64.9957 -64.9817 -64.9800
   -64.9727 -64.9695 -64.9693 -64.9255 -64.9219 -64.9214 -64.9080 -64.8990
   -64.8963 -64.8836 -64.8775 -64.8756 -64.8675 -64.8618 -64.8609 -64.8596
   -64.8596 -64.8576 -64.8570 -64.8505 -64.8500 -64.8492 -64.8488 -64.8313
   -64.8307 -64.8206 -64.8192 -64.8190 -64.8185 -64.8183 -64.8182 -64.8177
   -64.8109 -64.8106 -64.8096 -64.8072 -64.8070 -64.7989 -64.7977 -64.7584
   -64.7572 -64.7557 -64.7551 -64.7532 -64.7532 -64.7525 -64.7511 -64.7509
   -13.3662 -10.5988 -10.5933  -6.9697  -6.9532  -4.9733  -3.3408  -3.0843
    -3.0802  -3.0624  -2.5710  -2.5322  -2.4152  -2.4064  -1.8868  -1.5764
    -1.5461  -1.5447  -1.3501  -1.0456  -1.0210  -0.5601  -0.5361  -0.4442
    -0.4129  -0.3441  -0.2833   0.0662   0.2082   0.2524   0.2656   0.2703
     0.2718   0.2745   0.2770   0.3507   0.3682   0.4323   0.4353   0.4484
     0.4518   0.4666   0.4676   0.4708   0.4710   0.5170   0.5174   0.5221
     0.5223   0.6481   0.6582   0.6684   0.6838   0.6849   0.6868   0.7639
     0.8109   0.8528   0.8667   0.8690   0.8697   0.8718   0.8889   0.9044
     0.9078   0.9147   0.9149   1.0033   1.0038   1.0412   1.0413   1.0439
     1.0650   1.0684   1.0823   1.1354   1.1475   1.1478   1.1754   1.1782
     1.2024   1.2028   1.2416   1.2424   1.2968   1.2986   1.3005   1.3136
     1.3687   1.3697   1.4066   1.4084   1.4119   1.4167   1.4237   1.4393
     1.4467   1.4472   1.4770   1.5104   1.5152   1.5457   1.5490   1.5712
     1.5734   1.5827   1.5864   1.5993   1.6002   1.6049   1.6064   1.6501
     1.6552   1.6572   1.6622   1.6637   1.6759   1.7092   1.7185   1.7205
     1.7238   1.7322   1.7379   1.7386   1.7423   1.7537   1.7735   1.8145
     1.8333   1.8355   1.8364   1.8480   1.8587   1.8822   1.8840   1.8867
     1.8890   1.8896   1.8974   1.9190   1.9211   1.9334   1.9547   1.9559
     1.9597   1.9619   1.9791   1.9879   1.9905   1.9945   2.0217   2.0245
     2.0272   2.0343   2.0365   2.0473   2.0493   2.0550   2.0579   2.0746
     2.0829   2.1096   2.1260   2.1293   2.1724   2.1750   2.1797   2.1808
     2.1850   2.1868   2.1896   2.1927   2.1944   2.2008   2.2131   2.2168
     2.2183   2.2277   2.2320   2.2331   2.2352   2.2381   2.2387   2.3042
     2.3104   2.3149   2.3311   2.3566   2.3575   2.3683   2.3777   2.3897
     2.3970   2.3983   2.4010   2.4095   2.4210   2.4223   2.4417   2.4608
     2.4620   2.4663   2.4710   2.4774   2.4852   2.5013   2.5023   2.5049
     2.5090   2.5177   2.5229   2.5231   2.5282   2.5463   2.5465   2.6255
     2.6352   2.6508   2.6558   2.6723   2.6725   2.6840   2.6868   2.7062
     2.7093   2.7268   2.7389   2.7421   2.7558   2.7582   2.7655   2.7791
     2.7792   2.7899   2.7945   2.7980   2.8027   2.8139   2.8265   2.8283
     2.8396   2.8449   2.8545   2.8851   2.8854   2.8922   2.8935   2.8993
     2.9014   2.9074   2.9189   2.9422   2.9469   2.9663   2.9706   2.9818
     2.9822   2.9999   3.0106   3.0222   3.0254   3.0571   3.0573   3.0765
     3.0884   3.0968   3.1007   3.1174   3.1197   3.1199   3.1217   3.1222
     3.1235   3.1336   3.1571   3.1585   3.1590   3.1593   3.1597   3.1723
     3.1761   3.1817   3.1898   3.1976   3.2097   3.2108   3.2148   3.2182
     3.2189   3.2511   3.2619   3.2627   3.2712   3.2767   3.2773   3.2817
     3.2877   3.3152   3.4046   3.8893   3.9627   3.9822   4.0274   4.4213
     4.4840   4.4863   4.4865   4.4881   4.7326   4.7456   4.7485   4.7508
     5.0406   5.0887   5.1687   5.2210   5.2374   5.2845   5.3229   5.3580
     5.4243   5.5705   5.8937   6.0399   6.1328   6.1625   6.2466   6.2822
     6.3010   6.3456   6.3748   6.6884   6.8229   6.8945   6.9947   7.5683
     7.5973   7.6174   7.7902   7.8438   8.0044   8.3851   8.3916   8.4609
     8.7113   8.7242   8.7443   8.7990   8.9399   9.0211   9.0582   9.2378
     9.3495   9.3777   9.3789   9.4015   9.4613   9.5216   9.6102   9.7409
     9.8116   9.9152   9.9736  10.0555  10.1074  10.2408  10.3074  10.4026
    10.4175  10.5455  10.6370  10.6766  10.7058  10.7779  10.9303  11.0347
    11.0698  11.1012  11.2403  11.2614  11.2904  11.4307  11.4447  11.5109
    11.7873  11.7961  11.8841  12.0337  12.1624  12.2162  12.2908  12.3899
    12.3991  12.4282  12.4797  12.7077  12.7245  12.8054  12.8163  12.8963
    12.9240  13.0514  13.1466  13.1507  13.2447  13.3369  13.3659  13.3842
    13.4142  13.4360  13.4452  13.4741  13.5227  13.6537  13.6711  13.6967
    13.8849  13.8868

          k =-0.2500-0.7217 0.0000 ( 61343 PWs)   bands (ev):

  -107.6643-107.6481-107.6456-107.6452-107.6430-107.6408-107.6405-107.6400
  -107.6392-107.6389-107.6387-107.6382-107.6379-107.6370-107.6366-107.6364
  -107.6361-107.6359-107.6355-107.6341-107.6334-107.6317-107.6315-107.6291
  -107.6277-107.6259-107.6256-107.6248-107.6241-107.6234-107.6221-107.6217
  -107.6212-107.6209-107.6144-107.6062-107.5699-107.5673-107.5673-107.4772
  -107.4747-107.4746-107.4396-107.4371-107.4371-107.3868-107.3851-107.3846
  -107.3827-107.3813-107.3812-107.3807-107.3795-107.3793 -65.1073 -65.0976
   -65.0949 -65.0941 -65.0930 -65.0928 -65.0918 -65.0907 -65.0895 -65.0876
   -65.0868 -65.0861 -65.0833 -65.0820 -65.0812 -65.0806 -65.0798 -65.0788
   -65.0764 -65.0751 -65.0743 -65.0739 -65.0729 -65.0721 -65.0712 -65.0708
   -65.0694 -65.0682 -65.0666 -65.0659 -65.0635 -65.0617 -65.0610 -65.0605
   -65.0590 -65.0581 -65.0575 -65.0563 -65.0554 -65.0540 -65.0536 -65.0532
   -65.0524 -65.0518 -65.0507 -65.0504 -65.0488 -65.0475 -65.0470 -65.0464
   -65.0461 -65.0456 -65.0454 -65.0445 -65.0442 -65.0438 -65.0429 -65.0419
   -65.0415 -65.0410 -65.0402 -65.0401 -65.0394 -65.0385 -65.0376 -65.0375
   -65.0368 -65.0366 -65.0358 -65.0354 -65.0350 -65.0343 -65.0340 -65.0338
   -65.0335 -65.0326 -65.0321 -65.0315 -65.0311 -65.0305 -65.0304 -65.0301
   -65.0296 -65.0292 -65.0286 -65.0280 -65.0278 -65.0270 -65.0268 -65.0261
   -65.0250 -65.0240 -65.0236 -65.0231 -65.0227 -65.0217 -65.0216 -65.0211
   -65.0198 -65.0186 -65.0181 -65.0174 -65.0139 -65.0125 -65.0117 -65.0111
   -65.0100 -65.0094 -65.0089 -65.0078 -65.0059 -64.9956 -64.9816 -64.9800
   -64.9727 -64.9695 -64.9693 -64.9246 -64.9229 -64.9215 -64.9080 -64.8984
   -64.8968 -64.8826 -64.8784 -64.8761 -64.8672 -64.8618 -64.8602 -64.8596
   -64.8596 -64.8575 -64.8557 -64.8550 -64.8524 -64.8458 -64.8422 -64.8415
   -64.8226 -64.8206 -64.8206 -64.8195 -64.8192 -64.8183 -64.8182 -64.8140
   -64.8136 -64.8131 -64.8123 -64.8062 -64.8018 -64.8014 -64.7975 -64.7585
   -64.7569 -64.7563 -64.7547 -64.7532 -64.7532 -64.7526 -64.7511 -64.7509
   -13.3662 -10.5975 -10.5946  -6.9654  -6.9575  -4.9736  -3.3404  -3.2867
    -3.0622  -2.7168  -2.5116  -2.4938  -2.4475  -2.4182  -2.0375  -1.9044
    -1.8361  -1.5164  -1.0640  -0.9875  -0.6228  -0.5194  -0.4765  -0.4606
    -0.4509  -0.1336  -0.1203  -0.0900  -0.0590   0.1222   0.1246   0.1323
     0.2761   0.2935   0.3198   0.3208   0.3321   0.3847   0.3883   0.3927
     0.4137   0.5055   0.5105   0.5142   0.5149   0.5438   0.5684   0.6349
     0.6537   0.6626   0.6736   0.7064   0.7085   0.7098   0.7195   0.7239
     0.7453   0.7598   0.8167   0.8242   0.8465   0.8493   0.8700   0.8842
     0.8896   0.9241   0.9328   0.9474   0.9935   1.0139   1.0177   1.0343
     1.0472   1.0960   1.1077   1.1435   1.1634   1.1668   1.1774   1.1876
     1.2545   1.2652   1.2690   1.2736   1.2789   1.2906   1.3204   1.3384
     1.3456   1.3976   1.4000   1.4141   1.4195   1.4311   1.4384   1.4399
     1.4453   1.4935   1.4945   1.4999   1.5041   1.5143   1.5236   1.5412
     1.5453   1.5566   1.5602   1.5878   1.5945   1.5983   1.6099   1.6182
     1.6250   1.6540   1.6951   1.6985   1.6988   1.7054   1.7130   1.7246
     1.7443   1.7534   1.7686   1.7887   1.7932   1.7985   1.8024   1.8043
     1.8253   1.8270   1.8319   1.8432   1.8457   1.8740   1.8849   1.8867
     1.8932   1.9006   1.9065   1.9221   1.9231   1.9409   1.9439   1.9473
     1.9486   1.9594   1.9692   1.9780   2.0022   2.0153   2.0216   2.0268
     2.0320   2.0379   2.0488   2.0507   2.0622   2.0635   2.0655   2.0728
     2.0754   2.0823   2.0861   2.0893   2.1176   2.1232   2.1256   2.1290
     2.1555   2.1572   2.1595   2.1642   2.1687   2.1737   2.1756   2.1773
     2.1781   2.1808   2.2357   2.2376   2.2807   2.3021   2.3044   2.3074
     2.3139   2.3170   2.3283   2.3346   2.3562   2.3614   2.3748   2.3878
     2.4026   2.4050   2.4383   2.4419   2.4472   2.4641   2.4663   2.4725
     2.4767   2.4785   2.4822   2.4855   2.4878   2.4958   2.5140   2.5169
     2.5199   2.5493   2.5606   2.5635   2.5677   2.5796   2.5903   2.6046
     2.6078   2.6207   2.6297   2.6334   2.6398   2.6521   2.6825   2.6830
     2.6908   2.6977   2.7042   2.7208   2.7263   2.7509   2.7618   2.7689
     2.7765   2.7805   2.7903   2.8014   2.8169   2.8206   2.8299   2.8348
     2.8423   2.8440   2.8471   2.8506   2.8593   2.8676   2.8942   2.9123
     2.9222   2.9281   2.9336   2.9512   2.9735   2.9775   2.9906   3.0024
     3.0188   3.0384   3.0437   3.0493   3.0530   3.0593   3.0605   3.0910
     3.0924   3.0996   3.1012   3.1063   3.1136   3.1151   3.1191   3.1215
     3.1269   3.1283   3.1320   3.1335   3.1390   3.1466   3.1492   3.1558
     3.1605   3.1720   3.1733   3.1837   3.1980   3.2031   3.2095   3.2179
     3.2201   3.2351   3.2411   3.2495   3.2764   3.2963   3.2984   3.4697
     3.5081   3.5622   3.5640   3.6522   3.6599   3.8150   3.9794   3.9966
     4.3848   4.4484   4.4652   4.4699   4.4912   4.7406   4.8187   4.8555
     4.8703   4.8923   5.1083   5.2850   5.3237   5.3431   5.7926   5.8033
     5.8622   5.9607   6.0451   6.0691   6.0896   6.2418   6.2582   6.2852
     6.3934   6.6398   6.6446   6.7976   6.9353   6.9852   7.0620   7.1973
     7.2345   7.2563   7.3117   7.5462   7.6953   7.7796   8.0616   8.1353
     8.4628   8.6435   8.6554   8.7362   8.7615   8.8574   9.1319   9.1818
     9.3005   9.3764   9.4193   9.5455   9.5845   9.6177   9.7630   9.8024
     9.8532  10.0254  10.1430  10.1954  10.2102  10.4058  10.4265  10.5559
    10.5808  10.6626  10.8454  10.9137  11.0262  11.0670  11.1045  11.1609
    11.2212  11.3276  11.4133  11.5996  11.6272  11.6620  11.7039  11.7598
    11.8202  11.9104  11.9385  11.9523  12.0335  12.1146  12.1691  12.2546
    12.3115  12.3744  12.4880  12.5208  12.5668  12.6679  12.7049  12.7628
    12.7713  12.8122  12.9000  12.9295  12.9862  13.1018  13.1842  13.2131
    13.3327  13.3836  13.3985  13.4248  13.5429  13.5926  13.6768  13.7232
    13.7652  13.7920

          k =-0.5000-0.5774 0.0000 ( 61343 PWs)   bands (ev):

  -107.6643-107.6481-107.6456-107.6452-107.6430-107.6408-107.6405-107.6400
  -107.6392-107.6389-107.6387-107.6382-107.6379-107.6370-107.6366-107.6364
  -107.6361-107.6359-107.6355-107.6341-107.6334-107.6317-107.6315-107.6291
  -107.6277-107.6259-107.6256-107.6248-107.6241-107.6234-107.6221-107.6218
  -107.6212-107.6209-107.6144-107.6062-107.5699-107.5673-107.5673-107.4772
  -107.4747-107.4746-107.4396-107.4371-107.4371-107.3868-107.3851-107.3846
  -107.3827-107.3813-107.3812-107.3807-107.3795-107.3793 -65.1073 -65.0976
   -65.0949 -65.0941 -65.0930 -65.0928 -65.0918 -65.0907 -65.0895 -65.0876
   -65.0868 -65.0861 -65.0833 -65.0820 -65.0812 -65.0806 -65.0798 -65.0788
   -65.0764 -65.0751 -65.0743 -65.0739 -65.0729 -65.0721 -65.0712 -65.0708
   -65.0694 -65.0682 -65.0666 -65.0659 -65.0635 -65.0617 -65.0610 -65.0605
   -65.0590 -65.0581 -65.0575 -65.0563 -65.0554 -65.0540 -65.0536 -65.0532
   -65.0524 -65.0518 -65.0507 -65.0504 -65.0488 -65.0475 -65.0470 -65.0464
   -65.0461 -65.0456 -65.0454 -65.0445 -65.0442 -65.0438 -65.0429 -65.0419
   -65.0415 -65.0410 -65.0402 -65.0401 -65.0394 -65.0385 -65.0376 -65.0375
   -65.0368 -65.0366 -65.0358 -65.0354 -65.0350 -65.0343 -65.0341 -65.0338
   -65.0335 -65.0326 -65.0321 -65.0315 -65.0312 -65.0305 -65.0304 -65.0301
   -65.0296 -65.0292 -65.0286 -65.0280 -65.0278 -65.0270 -65.0268 -65.0261
   -65.0250 -65.0240 -65.0236 -65.0231 -65.0227 -65.0217 -65.0216 -65.0211
   -65.0198 -65.0186 -65.0181 -65.0174 -65.0139 -65.0125 -65.0117 -65.0111
   -65.0100 -65.0094 -65.0089 -65.0078 -65.0059 -64.9956 -64.9816 -64.9800
   -64.9727 -64.9695 -64.9693 -64.9246 -64.9229 -64.9215 -64.9080 -64.8984
   -64.8968 -64.8826 -64.8784 -64.8761 -64.8672 -64.8618 -64.8602 -64.8596
   -64.8596 -64.8575 -64.8557 -64.8550 -64.8524 -64.8458 -64.8422 -64.8415
   -64.8226 -64.8206 -64.8206 -64.8195 -64.8192 -64.8183 -64.8182 -64.8140
   -64.8136 -64.8131 -64.8123 -64.8062 -64.8018 -64.8014 -64.7975 -64.7585
   -64.7569 -64.7563 -64.7547 -64.7532 -64.7532 -64.7526 -64.7511 -64.7509
   -13.3662 -10.5973 -10.5948  -6.9658  -6.9572  -4.9736  -3.3404  -3.2867
    -3.0621  -2.7168  -2.5116  -2.4938  -2.4475  -2.4182  -2.0375  -1.9044
    -1.8361  -1.5164  -1.0640  -0.9875  -0.6228  -0.5193  -0.4766  -0.4606
    -0.4509  -0.1336  -0.1203  -0.0900  -0.0590   0.1222   0.1246   0.1323
     0.2761   0.2935   0.3198   0.3208   0.3321   0.3848   0.3883   0.3927
     0.4137   0.5055   0.5105   0.5142   0.5149   0.5438   0.5684   0.6349
     0.6537   0.6626   0.6736   0.7064   0.7085   0.7098   0.7195   0.7239
     0.7453   0.7598   0.8167   0.8242   0.8465   0.8493   0.8700   0.8842
     0.8896   0.9241   0.9328   0.9474   0.9935   1.0139   1.0177   1.0343
     1.0472   1.0960   1.1077   1.1435   1.1634   1.1668   1.1774   1.1876
     1.2545   1.2652   1.2690   1.2736   1.2789   1.2906   1.3204   1.3384
     1.3456   1.3976   1.4000   1.4141   1.4195   1.4311   1.4384   1.4399
     1.4453   1.4935   1.4945   1.4999   1.5041   1.5143   1.5236   1.5412
     1.5453   1.5566   1.5602   1.5878   1.5945   1.5983   1.6099   1.6182
     1.6250   1.6540   1.6951   1.6985   1.6988   1.7054   1.7130   1.7246
     1.7443   1.7534   1.7686   1.7887   1.7932   1.7985   1.8024   1.8043
     1.8253   1.8270   1.8319   1.8432   1.8457   1.8740   1.8849   1.8867
     1.8932   1.9006   1.9065   1.9221   1.9231   1.9409   1.9439   1.9473
     1.9486   1.9594   1.9692   1.9780   2.0022   2.0153   2.0216   2.0268
     2.0320   2.0379   2.0488   2.0507   2.0622   2.0635   2.0655   2.0728
     2.0754   2.0823   2.0861   2.0893   2.1176   2.1232   2.1256   2.1290
     2.1555   2.1572   2.1595   2.1642   2.1687   2.1737   2.1756   2.1773
     2.1781   2.1808   2.2356   2.2376   2.2807   2.3021   2.3044   2.3074
     2.3139   2.3170   2.3283   2.3346   2.3562   2.3614   2.3748   2.3878
     2.4026   2.4050   2.4383   2.4419   2.4472   2.4641   2.4663   2.4725
     2.4767   2.4785   2.4822   2.4855   2.4878   2.4958   2.5140   2.5169
     2.5199   2.5493   2.5606   2.5635   2.5677   2.5796   2.5903   2.6046
     2.6078   2.6207   2.6297   2.6334   2.6398   2.6521   2.6825   2.6830
     2.6908   2.6977   2.7042   2.7208   2.7263   2.7509   2.7618   2.7689
     2.7765   2.7805   2.7903   2.8013   2.8169   2.8206   2.8299   2.8348
     2.8423   2.8440   2.8471   2.8506   2.8593   2.8676   2.8942   2.9123
     2.9222   2.9281   2.9336   2.9512   2.9735   2.9775   2.9906   3.0024
     3.0188   3.0384   3.0437   3.0493   3.0530   3.0593   3.0605   3.0910
     3.0924   3.0996   3.1012   3.1063   3.1136   3.1151   3.1191   3.1215
     3.1269   3.1283   3.1320   3.1335   3.1390   3.1466   3.1492   3.1558
     3.1605   3.1720   3.1733   3.1837   3.1980   3.2031   3.2095   3.2179
     3.2201   3.2351   3.2411   3.2495   3.2764   3.2963   3.2984   3.4697
     3.5082   3.5622   3.5640   3.6522   3.6599   3.8150   3.9794   3.9966
     4.3848   4.4484   4.4652   4.4699   4.4912   4.7406   4.8187   4.8555
     4.8703   4.8923   5.1083   5.2850   5.3237   5.3431   5.7927   5.8033
     5.8622   5.9607   6.0451   6.0691   6.0896   6.2418   6.2582   6.2853
     6.3934   6.6398   6.6446   6.7976   6.9353   6.9852   7.0620   7.1973
     7.2345   7.2563   7.3117   7.5462   7.6953   7.7796   8.0616   8.1353
     8.4628   8.6434   8.6554   8.7362   8.7615   8.8574   9.1318   9.1818
     9.3006   9.3763   9.4193   9.5455   9.5845   9.6177   9.7630   9.8025
     9.8532  10.0253  10.1430  10.1954  10.2101  10.4058  10.4265  10.5560
    10.5808  10.6625  10.8454  10.9137  11.0262  11.0670  11.1045  11.1609
    11.2212  11.3277  11.4134  11.5995  11.6272  11.6620  11.7039  11.7598
    11.8202  11.9104  11.9384  11.9523  12.0335  12.1146  12.1691  12.2546
    12.3116  12.3745  12.4880  12.5207  12.5667  12.6679  12.7049  12.7628
    12.7713  12.8122  12.9000  12.9294  12.9862  13.1018  13.1842  13.2132
    13.3327  13.3836  13.3985  13.4249  13.5429  13.5926  13.6768  13.7232
    13.7653  13.7920

     the Fermi energy is     4.7935 ev

!    total energy              =  -21903.72947491 Ry
     Harris-Foulkes estimate   =  -21903.72947496 Ry
     estimated scf accuracy    <          3.1E-09 Ry

     The total energy is the sum of the following terms:

     one-electron contribution = -209827.61641842 Ry
     hartree contribution      =  105122.47639915 Ry
     xc contribution           =   -2143.36461530 Ry
     ewald contribution        =   84944.82904762 Ry
     smearing contrib. (-TS)   =      -0.05388797 Ry

     convergence has been achieved in  39 iterations
 
     init_run     :     85.34s CPU     88.02s WALL (       1 calls)
     electrons    :  19320.34s CPU  19664.49s WALL (       1 calls)

     Called by init_run:
     wfcinit      :     73.51s CPU     75.47s WALL (       1 calls)
     potinit      :      7.87s CPU      8.10s WALL (       1 calls)
     hinit0       :      2.06s CPU      2.08s WALL (       1 calls)

     Called by electrons:
     c_bands      :  17987.87s CPU  18268.17s WALL (      39 calls)
     sum_band     :    953.09s CPU    991.81s WALL (      39 calls)
     v_of_rho     :    302.16s CPU    311.02s WALL (      40 calls)
     newd         :     68.76s CPU     85.39s WALL (      40 calls)
     mix_rho      :     11.19s CPU     11.35s WALL (      39 calls)

     Called by c_bands:
     init_us_2    :     17.86s CPU     17.98s WALL (     790 calls)
     cegterg      :  17861.27s CPU  18134.94s WALL (     390 calls)

     Called by sum_band:
     sum_band:bec :      3.23s CPU      3.23s WALL (     390 calls)
     addusdens    :     42.50s CPU     64.86s WALL (      39 calls)

     Called by *egterg:
     h_psi        :   4268.04s CPU   4359.60s WALL (    2172 calls)
     s_psi        :    396.98s CPU    397.40s WALL (    2172 calls)
     g_psi        :      6.99s CPU      7.02s WALL (    1772 calls)
     cdiaghg      :  10495.65s CPU  10575.26s WALL (    2162 calls)

     Called by h_psi:
     h_psi:pot    :   4257.23s CPU   4330.21s WALL (    2172 calls)
     h_psi:calbec :    630.31s CPU    631.67s WALL (    2172 calls)
     vloc_psi     :   3228.28s CPU   3298.88s WALL (    2172 calls)
     add_vuspsi   :    398.61s CPU    399.64s WALL (    2172 calls)

     General routines
     calbec       :    837.97s CPU    839.61s WALL (    2562 calls)
     fft          :    307.45s CPU    309.40s WALL (    2519 calls)
     ffts         :      2.87s CPU      2.88s WALL (      79 calls)
     fftw         :   3507.55s CPU   3586.56s WALL ( 1548752 calls)
     interpolate  :      4.38s CPU      4.42s WALL (      40 calls)
 
     Parallel routines
     fft_scatt_xy :    324.29s CPU    327.03s WALL ( 1551350 calls)
     fft_scatt_yz :   2489.35s CPU   2553.39s WALL ( 1551350 calls)
 
     PWSCF        :     5h23m CPU       23h 5m WALL

      29h
 
   This run was terminated on:  17:23:38  25Nov2019            

=------------------------------------------------------------------------------=
   JOB DONE.
=------------------------------------------------------------------------------=
