
     Program PWSCF v.6.3MaX starts on 18Nov2019 at 16:57:28 

     This program is part of the open-source Quantum ESPRESSO suite
     for quantum simulation of materials; please cite
         "P. Giannozzi et al., J. Phys.:Condens. Matter 21 395502 (2009);
         "P. Giannozzi et al., J. Phys.:Condens. Matter 29 465901 (2017);
          URL http://www.quantum-espresso.org", 
     in publications or presentations arising from this work. More details at
     http://www.quantum-espresso.org/quote

     Parallel version (MPI), running on    16 processors

     MPI processes distributed on     2 nodes
     R & G space division:  proc/nbgrp/npool/nimage =      16
     Waiting for input...
     Reading input from standard input

     Current dimensions of program PWSCF are:
     Max number of different atomic species (ntypx) = 10
     Max number of k-points (npk) =  40000
     Max angular momentum in pseudopotentials (lmaxx) =  3
     Message from routine iosys:
     minimal I/O required, wf_collect reset to FALSE

     IMPORTANT: XC functional enforced from input :
     Exchange-correlation      = VDW-DF ( 1  4  4  0 1 0)
     Any further DFT definition will be discarded
     Please, verify this is what you really want


     Subspace diagonalization in iterative solution of the eigenvalue problem:
     one sub-group per band group will be used
     scalapack distributed-memory algorithm (size of sub-group:  2*  2 procs)

 
     Parallelization info
     --------------------
     sticks:   dense  smooth     PW     G-vecs:    dense   smooth      PW
     Min         565     189     51               159513    30701    4383
     Max         566     190     52               159526    30710    4400
     Sum        9055    3037    823              2552337   491295   70261
 


     bravais-lattice index     =            0
     lattice parameter (alat)  =      14.8058  a.u.
     unit-cell volume          =   10282.4791 (a.u.)^3
     number of atoms/cell      =           66
     number of atomic types    =            3
     number of electrons       =      1056.00
     number of Kohn-Sham states=          634
     kinetic-energy cutoff     =      50.0000  Ry
     charge density cutoff     =     600.0000  Ry
     convergence threshold     =      1.0E-08
     mixing beta               =       0.3000
     number of iterations used =            8  plain     mixing
     Exchange-correlation      = VDW-DF ( 1  4  4  0 1 0)

     celldm(1)=  14.805786  celldm(2)=   0.000000  celldm(3)=   0.000000
     celldm(4)=   0.000000  celldm(5)=   0.000000  celldm(6)=   0.000000

     crystal axes: (cart. coord. in units of alat)
               a(1) = (   1.000000   0.000000   0.000000 )  
               a(2) = (   0.500000   0.866025   0.000000 )  
               a(3) = (   0.000000   0.000000   3.658245 )  

     reciprocal axes: (cart. coord. in units 2 pi/alat)
               b(1) = (  1.000000 -0.577350  0.000000 )  
               b(2) = (  0.000000  1.154701  0.000000 )  
               b(3) = (  0.000000  0.000000  0.273355 )  


     PseudoPot. # 1 for Cu read from file:
     /deac/thonhauserGrp/chakrad/calculations/atomandmolecule-qe6.2.1-i2012-C6modif/all_pbe_UPF_v1.5/cu_pbe_v1.2.uspp.F.UPF
     MD5 check sum: 6e991ff952a84172a2a52a1c1e996048
     Pseudo is Ultrasoft + core correction, Zval = 19.0
     Generated by new atomic code, or converted to UPF format
     Using radial grid of  867 points,  6 beta functions with: 
                l(1) =   0
                l(2) =   0
                l(3) =   1
                l(4) =   1
                l(5) =   2
                l(6) =   2
     Q(r) pseudized with  8 coefficients,  rinner =    1.150   1.150   1.150
                                                       1.150   1.150

     PseudoPot. # 2 for C  read from file:
     /deac/thonhauserGrp/chakrad/calculations/atomandmolecule-qe6.2.1-i2012-C6modif/all_pbe_UPF_v1.5/c_pbe_v1.2.uspp.F.UPF
     MD5 check sum: d1aef80898a10debaa0f26306b886e00
     Pseudo is Ultrasoft + core correction, Zval =  4.0
     Generated by new atomic code, or converted to UPF format
     Using radial grid of  721 points,  4 beta functions with: 
                l(1) =   0
                l(2) =   0
                l(3) =   1
                l(4) =   1
     Q(r) pseudized with  8 coefficients,  rinner =    1.100   1.100   1.100


     PseudoPot. # 3 for H  read from file:
     /deac/thonhauserGrp/chakrad/calculations/atomandmolecule-qe6.2.1-i2012-C6modif/all_pbe_UPF_v1.5/h_pbe_v1.4.uspp.F.UPF
     MD5 check sum: 761ae9a214b05c3daf00ab9f6b793d6f
     Pseudo is Ultrasoft, Zval =  1.0
     Generated by new atomic code, or converted to UPF format
     Using radial grid of  615 points,  2 beta functions with: 
                l(1) =   0
                l(2) =   0
     Q(r) pseudized with  8 coefficients,  rinner =    0.700

     vdW kernel table read from file vdW_kernel_table
     MD5 check sum: cc9485f6209b1096fbef62427c856dab

     atomic species   valence    mass     pseudopotential
        Cu            19.00     1.00000     Cu( 1.00)
        C              4.00     1.00000     C ( 1.00)
        H              1.00     1.00000     H ( 1.00)

     No symmetry found



   Cartesian axes

     site n.     atom                  positions (alat units)
         1           Cu  tau(   1) = (   0.1666667   0.0962250   0.2552686  )
         2           Cu  tau(   2) = (   0.5000000   0.0962250   0.2552686  )
         3           Cu  tau(   3) = (   0.8333333   0.0962250   0.2552686  )
         4           Cu  tau(   4) = (   0.3333333   0.3849002   0.2552686  )
         5           Cu  tau(   5) = (   0.6666667   0.3849002   0.2552686  )
         6           Cu  tau(   6) = (   1.0000000   0.3849002   0.2552686  )
         7           Cu  tau(   7) = (   0.5000000   0.6735753   0.2552686  )
         8           Cu  tau(   8) = (   0.8333333   0.6735753   0.2552686  )
         9           Cu  tau(   9) = (   1.1666667   0.6735753   0.2552686  )
        10           Cu  tau(  10) = (   0.0000000   0.1924501   0.5274341  )
        11           Cu  tau(  11) = (   0.3333333   0.1924501   0.5274341  )
        12           Cu  tau(  12) = (   0.6666667   0.1924501   0.5274341  )
        13           Cu  tau(  13) = (   0.1666667   0.4811252   0.5274341  )
        14           Cu  tau(  14) = (   0.5000000   0.4811252   0.5274341  )
        15           Cu  tau(  15) = (   0.8333333   0.4811252   0.5274341  )
        16           Cu  tau(  16) = (   0.3333333   0.7698004   0.5274341  )
        17           Cu  tau(  17) = (   0.6666667   0.7698004   0.5274341  )
        18           Cu  tau(  18) = (   1.0000000   0.7698004   0.5274341  )
        19           Cu  tau(  19) = (   0.0000000   0.0000000   0.7995997  )
        20           Cu  tau(  20) = (   0.3333333   0.0000000   0.7995997  )
        21           Cu  tau(  21) = (   0.6666667   0.0000000   0.7995997  )
        22           Cu  tau(  22) = (   0.1666667   0.2886751   0.7995997  )
        23           Cu  tau(  23) = (   0.5000000   0.2886751   0.7995997  )
        24           Cu  tau(  24) = (   0.8333333   0.2886751   0.7995997  )
        25           Cu  tau(  25) = (   0.3333333   0.5773503   0.7995997  )
        26           Cu  tau(  26) = (   0.6666667   0.5773503   0.7995997  )
        27           Cu  tau(  27) = (   1.0000000   0.5773503   0.7995997  )
        28           Cu  tau(  28) = (   0.1666659   0.0962246   1.0691130  )
        29           Cu  tau(  29) = (   0.5000000   0.0962241   1.0691104  )
        30           Cu  tau(  30) = (   0.8333341   0.0962246   1.0691130  )
        31           Cu  tau(  31) = (   0.3333325   0.3849006   1.0691104  )
        32           Cu  tau(  32) = (   0.6666675   0.3849006   1.0691104  )
        33           Cu  tau(  33) = (   1.0000000   0.3849003   1.0691143  )
        34           Cu  tau(  34) = (   0.5000000   0.6735762   1.0691130  )
        35           Cu  tau(  35) = (   0.8333334   0.6735753   1.0691143  )
        36           Cu  tau(  36) = (   1.1666666   0.6735753   1.0691143  )
        37           Cu  tau(  37) = (   0.0000000   0.1924486   1.3387540  )
        38           Cu  tau(  38) = (   0.3333330   0.1924499   1.3387465  )
        39           Cu  tau(  39) = (   0.6666670   0.1924499   1.3387465  )
        40           Cu  tau(  40) = (   0.1666676   0.4811247   1.3387504  )
        41           Cu  tau(  41) = (   0.5000000   0.4811256   1.3387465  )
        42           Cu  tau(  42) = (   0.8333324   0.4811247   1.3387504  )
        43           Cu  tau(  43) = (   0.3333346   0.7698011   1.3387540  )
        44           Cu  tau(  44) = (   0.6666654   0.7698011   1.3387540  )
        45           Cu  tau(  45) = (   1.0000000   0.7698014   1.3387504  )
        46           Cu  tau(  46) = (   0.0000000   0.0000000   1.6083750  )
        47           Cu  tau(  47) = (   0.3333333   0.0000005   1.6083624  )
        48           Cu  tau(  48) = (   0.6666667   0.0000005   1.6083624  )
        49           Cu  tau(  49) = (   0.1666671   0.2886748   1.6083624  )
        50           Cu  tau(  50) = (   0.5000000   0.2886751   1.6083553  )
        51           Cu  tau(  51) = (   0.8333329   0.2886748   1.6083624  )
        52           Cu  tau(  52) = (   0.3333338   0.5773500   1.6083624  )
        53           Cu  tau(  53) = (   0.6666662   0.5773500   1.6083624  )
        54           Cu  tau(  54) = (   1.0000000   0.5773503   1.6083570  )
        55           C   tau(  55) = (   0.6567407   0.3959883   2.0805648  )
        56           C   tau(  56) = (   0.5046394   0.3028152   2.0805648  )
        57           C   tau(  57) = (   0.3478975   0.3879497   2.0805648  )
        58           C   tau(  58) = (   0.3432593   0.5662630   2.0805648  )
        59           C   tau(  59) = (   0.4953606   0.6594361   2.0805648  )
        60           C   tau(  60) = (   0.6521025   0.5743016   2.0805648  )
        61           H   tau(  61) = (   0.7789959   0.3295665   2.0806431  )
        62           H   tau(  62) = (   0.5082587   0.1637263   2.0806431  )
        63           H   tau(  63) = (   0.2292624   0.3152577   2.0806431  )
        64           H   tau(  64) = (   0.2210041   0.6326847   2.0806431  )
        65           H   tau(  65) = (   0.4917413   0.7985249   2.0806431  )
        66           H   tau(  66) = (   0.7707376   0.6469936   2.0806431  )

     number of k points=    10  gaussian smearing, width (Ry)=  0.0200
                       cart. coord. in units 2pi/alat
        k(    1) = (   0.0000000   0.0000000   0.0000000), wk =   0.1250000
        k(    2) = (   0.0000000   0.2886751   0.0000000), wk =   0.2500000
        k(    3) = (   0.0000000  -0.5773503   0.0000000), wk =   0.1250000
        k(    4) = (   0.2500000  -0.7216878   0.0000000), wk =   0.2500000
        k(    5) = (  -0.2500000   0.1443376   0.0000000), wk =   0.2500000
        k(    6) = (   0.2500000   0.1443376   0.0000000), wk =   0.2500000
        k(    7) = (   0.5000000  -0.2886751   0.0000000), wk =   0.1250000
        k(    8) = (  -0.5000000  -0.2886751   0.0000000), wk =   0.1250000
        k(    9) = (  -0.2500000  -0.7216878   0.0000000), wk =   0.2500000
        k(   10) = (  -0.5000000  -0.5773503   0.0000000), wk =   0.2500000

     Dense  grid:  2552337 G-vectors     FFT dimensions: ( 120, 120, 432)

     Smooth grid:   491295 G-vectors     FFT dimensions: (  72,  72, 243)

     Estimated max dynamical RAM per process >       1.14 GB

     Estimated total dynamical RAM >      18.26 GB

     Initial potential from superposition of free atoms
     Check: negative starting charge=   -0.000719

     starting charge 1001.99960, renormalised to 1056.00000

     negative rho (up, down):  7.576E-04 0.000E+00


     %%%%%%%%%%%%%%%%%%%%%%%%%%%%%%%%%%%%%%%%%%%%%%%%%%%%%%%%%%%%%%%%%%%%%%%%
     %                                                                      %
     % You are using vdW-DF, which was implemented by the Thonhauser group. %
     % Please cite the following two papers that made this development      %
     % possible and the two reviews that describe the various versions:     %
     %                                                                      %
     %   T. Thonhauser et al., PRL 115, 136402 (2015).                      %
     %   T. Thonhauser et al., PRB 76, 125112 (2007).                       %
     %   K. Berland et al., Rep. Prog. Phys. 78, 066501 (2015).             %
     %   D.C. Langreth et al., J. Phys.: Condens. Matter 21, 084203 (2009). %
     %                                                                      %
     %                                                                      %
     % If you are calculating the stress with vdW-DF, please also cite:     %
     %                                                                      %
     %   R. Sabatini et al., J. Phys.: Condens. Matter 24, 424209 (2012).   %
     %                                                                      %
     %%%%%%%%%%%%%%%%%%%%%%%%%%%%%%%%%%%%%%%%%%%%%%%%%%%%%%%%%%%%%%%%%%%%%%%%


     Starting wfcs are  732 randomized atomic wfcs

     total cpu time spent up to now is       95.2 secs

     Self-consistent Calculation

     iteration #  1     ecut=    50.00 Ry     beta= 0.30
     Davidson diagonalization with overlap
     ethr =  1.00E-02,  avg # of iterations =  5.7

     negative rho (up, down):  4.700E-04 0.000E+00

     total cpu time spent up to now is     1475.3 secs

     total energy              =  -19050.48137989 Ry
     Harris-Foulkes estimate   =  -22004.76115344 Ry
     estimated scf accuracy    <    5840.04561239 Ry

     iteration #  2     ecut=    50.00 Ry     beta= 0.30
     Davidson diagonalization with overlap
     ethr =  1.00E-02,  avg # of iterations = 19.4

     negative rho (up, down):  5.044E-04 0.000E+00

     total cpu time spent up to now is     4567.4 secs

     total energy              =  -19242.80159818 Ry
     Harris-Foulkes estimate   =  -38699.86385446 Ry
     estimated scf accuracy    <  282801.84533636 Ry

     iteration #  3     ecut=    50.00 Ry     beta= 0.30
     Davidson diagonalization with overlap
     ethr =  1.00E-02,  avg # of iterations =  7.0

     negative rho (up, down):  5.761E-04 0.000E+00

     total cpu time spent up to now is     6138.7 secs

     total energy              =  -21720.10012443 Ry
     Harris-Foulkes estimate   =  -23340.54834406 Ry
     estimated scf accuracy    <   43439.26482332 Ry

     iteration #  4     ecut=    50.00 Ry     beta= 0.30
     Davidson diagonalization with overlap
     ethr =  1.00E-02,  avg # of iterations =  7.8

     negative rho (up, down):  7.617E-04 0.000E+00

     total cpu time spent up to now is     7302.4 secs

     total energy              =  -21715.63130811 Ry
     Harris-Foulkes estimate   =  -22105.13097054 Ry
     estimated scf accuracy    <   10737.38757887 Ry

     iteration #  5     ecut=    50.00 Ry     beta= 0.30
     Davidson diagonalization with overlap
     ethr =  1.00E-02,  avg # of iterations =  6.0

     negative rho (up, down):  4.103E-05 0.000E+00

     total cpu time spent up to now is     8701.1 secs

     total energy              =  -21707.11458082 Ry
     Harris-Foulkes estimate   =  -22156.32389198 Ry
     estimated scf accuracy    <    8767.86803454 Ry

     iteration #  6     ecut=    50.00 Ry     beta= 0.30
     Davidson diagonalization with overlap
     ethr =  1.00E-02,  avg # of iterations =  5.6

     negative rho (up, down):  5.922E-05 0.000E+00

     total cpu time spent up to now is     9776.7 secs

     total energy              =  -21880.76568008 Ry
     Harris-Foulkes estimate   =  -21978.01746978 Ry
     estimated scf accuracy    <     748.25709369 Ry

     iteration #  7     ecut=    50.00 Ry     beta= 0.30
     Davidson diagonalization with overlap
     ethr =  1.00E-02,  avg # of iterations =  3.0

     negative rho (up, down):  1.723E-04 0.000E+00

     total cpu time spent up to now is    10098.8 secs

     total energy              =  -21907.74647401 Ry
     Harris-Foulkes estimate   =  -21935.58193129 Ry
     estimated scf accuracy    <     392.45282637 Ry

     iteration #  8     ecut=    50.00 Ry     beta= 0.30
     Davidson diagonalization with overlap
     ethr =  1.00E-02,  avg # of iterations =  3.0

     negative rho (up, down):  3.722E-04 0.000E+00

     total cpu time spent up to now is    10388.4 secs

     total energy              =  -21913.24735033 Ry
     Harris-Foulkes estimate   =  -21922.26931065 Ry
     estimated scf accuracy    <      83.19211364 Ry

     iteration #  9     ecut=    50.00 Ry     beta= 0.30
     Davidson diagonalization with overlap
     ethr =  7.88E-03,  avg # of iterations =  1.0

     negative rho (up, down):  4.855E-04 0.000E+00

     total cpu time spent up to now is    10599.9 secs

     total energy              =  -21913.37731244 Ry
     Harris-Foulkes estimate   =  -21915.27325841 Ry
     estimated scf accuracy    <     114.38648697 Ry

     iteration # 10     ecut=    50.00 Ry     beta= 0.30
     Davidson diagonalization with overlap
     ethr =  7.88E-03,  avg # of iterations =  1.0

     negative rho (up, down):  1.040E-02 0.000E+00

     total cpu time spent up to now is    10813.9 secs

     total energy              =  -21893.23769926 Ry
     Harris-Foulkes estimate   =  -21913.65863097 Ry
     estimated scf accuracy    <     108.51728601 Ry

     iteration # 11     ecut=    50.00 Ry     beta= 0.30
     Davidson diagonalization with overlap
     ethr =  7.88E-03,  avg # of iterations =  4.0

     negative rho (up, down):  2.297E-03 0.000E+00

     total cpu time spent up to now is    11258.6 secs

     total energy              =  -21896.65449013 Ry
     Harris-Foulkes estimate   =  -21916.77398871 Ry
     estimated scf accuracy    <     262.96416091 Ry

     iteration # 12     ecut=    50.00 Ry     beta= 0.30
     Davidson diagonalization with overlap
     ethr =  7.88E-03,  avg # of iterations =  3.0

     negative rho (up, down):  1.839E-03 0.000E+00

     total cpu time spent up to now is    11545.4 secs

     total energy              =  -21900.59159219 Ry
     Harris-Foulkes estimate   =  -21905.51104091 Ry
     estimated scf accuracy    <      36.10198538 Ry

     iteration # 13     ecut=    50.00 Ry     beta= 0.30
     Davidson diagonalization with overlap
     ethr =  3.42E-03,  avg # of iterations =  3.5

     negative rho (up, down):  1.730E-03 0.000E+00

     total cpu time spent up to now is    11880.2 secs

     total energy              =  -21904.11291023 Ry
     Harris-Foulkes estimate   =  -21904.40409443 Ry
     estimated scf accuracy    <       5.52256198 Ry

     iteration # 14     ecut=    50.00 Ry     beta= 0.30
     Davidson diagonalization with overlap
     ethr =  5.23E-04,  avg # of iterations =  3.5

     negative rho (up, down):  1.461E-03 0.000E+00

     total cpu time spent up to now is    12179.8 secs

     total energy              =  -21904.00700117 Ry
     Harris-Foulkes estimate   =  -21904.38032471 Ry
     estimated scf accuracy    <       4.19139278 Ry

     iteration # 15     ecut=    50.00 Ry     beta= 0.30
     Davidson diagonalization with overlap
     ethr =  3.97E-04,  avg # of iterations =  3.4

     negative rho (up, down):  1.522E-03 0.000E+00

     total cpu time spent up to now is    12471.0 secs

     total energy              =  -21903.94815026 Ry
     Harris-Foulkes estimate   =  -21904.20870046 Ry
     estimated scf accuracy    <       4.96711459 Ry

     iteration # 16     ecut=    50.00 Ry     beta= 0.30
     Davidson diagonalization with overlap
     ethr =  3.97E-04,  avg # of iterations =  2.2

     negative rho (up, down):  1.529E-03 0.000E+00

     total cpu time spent up to now is    12722.8 secs

     total energy              =  -21903.86252264 Ry
     Harris-Foulkes estimate   =  -21904.02817995 Ry
     estimated scf accuracy    <       3.39024796 Ry

     iteration # 17     ecut=    50.00 Ry     beta= 0.30
     Davidson diagonalization with overlap
     ethr =  3.21E-04,  avg # of iterations =  2.0

     negative rho (up, down):  1.473E-03 0.000E+00

     total cpu time spent up to now is    12971.8 secs

     total energy              =  -21903.82322401 Ry
     Harris-Foulkes estimate   =  -21903.89367552 Ry
     estimated scf accuracy    <       2.00570441 Ry

     iteration # 18     ecut=    50.00 Ry     beta= 0.30
     Davidson diagonalization with overlap
     ethr =  1.90E-04,  avg # of iterations =  2.9

     negative rho (up, down):  1.498E-03 0.000E+00

     total cpu time spent up to now is    13245.1 secs

     total energy              =  -21903.80927495 Ry
     Harris-Foulkes estimate   =  -21903.84657649 Ry
     estimated scf accuracy    <       0.51058887 Ry

     iteration # 19     ecut=    50.00 Ry     beta= 0.30
     Davidson diagonalization with overlap
     ethr =  4.84E-05,  avg # of iterations =  6.8

     negative rho (up, down):  1.498E-03 0.000E+00

     total cpu time spent up to now is    13683.1 secs

     total energy              =  -21903.78968207 Ry
     Harris-Foulkes estimate   =  -21903.82208912 Ry
     estimated scf accuracy    <       0.86145111 Ry

     iteration # 20     ecut=    50.00 Ry     beta= 0.30
     Davidson diagonalization with overlap
     ethr =  4.84E-05,  avg # of iterations =  2.3

     negative rho (up, down):  1.590E-03 0.000E+00

     total cpu time spent up to now is    13941.0 secs

     total energy              =  -21903.74954979 Ry
     Harris-Foulkes estimate   =  -21903.79583036 Ry
     estimated scf accuracy    <       0.38278071 Ry

     iteration # 21     ecut=    50.00 Ry     beta= 0.30
     Davidson diagonalization with overlap
     ethr =  3.62E-05,  avg # of iterations =  6.8

     negative rho (up, down):  1.669E-03 0.000E+00

     total cpu time spent up to now is    14388.9 secs

     total energy              =  -21903.76750868 Ry
     Harris-Foulkes estimate   =  -21903.77110311 Ry
     estimated scf accuracy    <       0.01749588 Ry

     iteration # 22     ecut=    50.00 Ry     beta= 0.30
     Davidson diagonalization with overlap
     ethr =  1.66E-06,  avg # of iterations =  7.0

     negative rho (up, down):  1.754E-03 0.000E+00

     total cpu time spent up to now is    14898.3 secs

     total energy              =  -21903.76830898 Ry
     Harris-Foulkes estimate   =  -21903.76991417 Ry
     estimated scf accuracy    <       0.00934310 Ry

     iteration # 23     ecut=    50.00 Ry     beta= 0.30
     Davidson diagonalization with overlap
     ethr =  8.85E-07,  avg # of iterations =  6.0

     negative rho (up, down):  1.824E-03 0.000E+00

     total cpu time spent up to now is    15312.1 secs

     total energy              =  -21903.76820295 Ry
     Harris-Foulkes estimate   =  -21903.76939785 Ry
     estimated scf accuracy    <       0.01268793 Ry

     iteration # 24     ecut=    50.00 Ry     beta= 0.30
     Davidson diagonalization with overlap
     ethr =  8.85E-07,  avg # of iterations =  3.7

     negative rho (up, down):  1.928E-03 0.000E+00

     total cpu time spent up to now is    15628.7 secs

     total energy              =  -21903.76872222 Ry
     Harris-Foulkes estimate   =  -21903.76889972 Ry
     estimated scf accuracy    <       0.00302716 Ry

     iteration # 25     ecut=    50.00 Ry     beta= 0.30
     Davidson diagonalization with overlap
     ethr =  2.87E-07,  avg # of iterations =  4.2

     negative rho (up, down):  2.019E-03 0.000E+00

     total cpu time spent up to now is    15958.6 secs

     total energy              =  -21903.76888260 Ry
     Harris-Foulkes estimate   =  -21903.76885089 Ry
     estimated scf accuracy    <       0.00022720 Ry

     iteration # 26     ecut=    50.00 Ry     beta= 0.30
     Davidson diagonalization with overlap
     ethr =  2.15E-08,  avg # of iterations =  4.2

     negative rho (up, down):  2.100E-03 0.000E+00

     total cpu time spent up to now is    16286.7 secs

     total energy              =  -21903.76892807 Ry
     Harris-Foulkes estimate   =  -21903.76890493 Ry
     estimated scf accuracy    <       0.00004644 Ry

     iteration # 27     ecut=    50.00 Ry     beta= 0.30
     Davidson diagonalization with overlap
     ethr =  4.40E-09,  avg # of iterations =  4.2

     negative rho (up, down):  2.165E-03 0.000E+00

     total cpu time spent up to now is    16625.1 secs

     total energy              =  -21903.76894459 Ry
     Harris-Foulkes estimate   =  -21903.76893497 Ry
     estimated scf accuracy    <       0.00002157 Ry

     iteration # 28     ecut=    50.00 Ry     beta= 0.30
     Davidson diagonalization with overlap
     ethr =  2.04E-09,  avg # of iterations =  2.5

     negative rho (up, down):  2.224E-03 0.000E+00

     total cpu time spent up to now is    16891.7 secs

     total energy              =  -21903.76895267 Ry
     Harris-Foulkes estimate   =  -21903.76894785 Ry
     estimated scf accuracy    <       0.00001743 Ry

     iteration # 29     ecut=    50.00 Ry     beta= 0.30
     Davidson diagonalization with overlap
     ethr =  1.65E-09,  avg # of iterations =  3.2

     negative rho (up, down):  2.279E-03 0.000E+00

     total cpu time spent up to now is    17178.6 secs

     total energy              =  -21903.76895673 Ry
     Harris-Foulkes estimate   =  -21903.76895435 Ry
     estimated scf accuracy    <       0.00000788 Ry

     iteration # 30     ecut=    50.00 Ry     beta= 0.30
     Davidson diagonalization with overlap
     ethr =  7.46E-10,  avg # of iterations =  3.3

     negative rho (up, down):  2.309E-03 0.000E+00

     total cpu time spent up to now is    17471.3 secs

     total energy              =  -21903.76895786 Ry
     Harris-Foulkes estimate   =  -21903.76895742 Ry
     estimated scf accuracy    <       0.00000284 Ry

     iteration # 31     ecut=    50.00 Ry     beta= 0.30
     Davidson diagonalization with overlap
     ethr =  2.69E-10,  avg # of iterations =  2.0

     negative rho (up, down):  2.341E-03 0.000E+00

     total cpu time spent up to now is    17723.6 secs

     total energy              =  -21903.76895820 Ry
     Harris-Foulkes estimate   =  -21903.76895815 Ry
     estimated scf accuracy    <       0.00000175 Ry

     iteration # 32     ecut=    50.00 Ry     beta= 0.30
     Davidson diagonalization with overlap
     ethr =  1.66E-10,  avg # of iterations =  3.0

     negative rho (up, down):  2.351E-03 0.000E+00

     total cpu time spent up to now is    18005.2 secs

     total energy              =  -21903.76895822 Ry
     Harris-Foulkes estimate   =  -21903.76895835 Ry
     estimated scf accuracy    <       0.00000084 Ry

     iteration # 33     ecut=    50.00 Ry     beta= 0.30
     Davidson diagonalization with overlap
     ethr =  7.98E-11,  avg # of iterations =  2.0

     negative rho (up, down):  2.351E-03 0.000E+00

     total cpu time spent up to now is    18247.5 secs

     total energy              =  -21903.76895823 Ry
     Harris-Foulkes estimate   =  -21903.76895828 Ry
     estimated scf accuracy    <       0.00000053 Ry

     iteration # 34     ecut=    50.00 Ry     beta= 0.30
     Davidson diagonalization with overlap
     ethr =  5.05E-11,  avg # of iterations =  1.0

     negative rho (up, down):  2.355E-03 0.000E+00

     total cpu time spent up to now is    18464.6 secs

     total energy              =  -21903.76895822 Ry
     Harris-Foulkes estimate   =  -21903.76895829 Ry
     estimated scf accuracy    <       0.00000062 Ry

     iteration # 35     ecut=    50.00 Ry     beta= 0.30
     Davidson diagonalization with overlap
     ethr =  5.05E-11,  avg # of iterations =  2.0

     negative rho (up, down):  2.355E-03 0.000E+00

     total cpu time spent up to now is    18711.4 secs

     total energy              =  -21903.76895823 Ry
     Harris-Foulkes estimate   =  -21903.76895824 Ry
     estimated scf accuracy    <       0.00000002 Ry

     iteration # 36     ecut=    50.00 Ry     beta= 0.30
     Davidson diagonalization with overlap
     ethr =  2.14E-12,  avg # of iterations =  2.0

     negative rho (up, down):  2.355E-03 0.000E+00

     total cpu time spent up to now is    18956.8 secs

     End of self-consistent calculation

          k = 0.0000 0.0000 0.0000 ( 61453 PWs)   bands (ev):

  -107.8707-107.8662-107.8643-107.8642-107.8642-107.8638-107.8638-107.8633
  -107.8620-107.8606-107.8606-107.8605-107.8605-107.8600-107.8600-107.8596
  -107.8592-107.8590-107.8557-107.8547-107.8547-107.8547-107.8540-107.8540
  -107.8538-107.8517-107.8517-107.8499-107.8459-107.8452-107.8452-107.8451
  -107.8451-107.8445-107.8428-107.8425-107.6317-107.6276-107.6276-107.6271
  -107.6256-107.6256-107.6244-107.6223-107.6223-107.6112-107.6062-107.6062
  -107.6061-107.6060-107.6060-107.6060-107.6035-107.6035 -65.3250 -65.3120
   -65.3115 -65.3115 -65.3111 -65.3111 -65.3106 -65.3040 -65.3039 -65.3039
   -65.3035 -65.3035 -65.3031 -65.3031 -65.3029 -65.2997 -65.2997 -65.2997
   -65.2994 -65.2975 -65.2920 -65.2920 -65.2917 -65.2911 -65.2909 -65.2909
   -65.2892 -65.2891 -65.2891 -65.2888 -65.2888 -65.2884 -65.2882 -65.2882
   -65.2857 -65.2857 -65.2853 -65.2852 -65.2797 -65.2797 -65.2797 -65.2792
   -65.2791 -65.2791 -65.2783 -65.2783 -65.2748 -65.2748 -65.2732 -65.2717
   -65.2717 -65.2714 -65.2714 -65.2713 -65.2713 -65.2711 -65.2693 -65.2644
   -65.2644 -65.2634 -65.2634 -65.2633 -65.2630 -65.2630 -65.2629 -65.2613
   -65.2613 -65.2613 -65.2606 -65.2602 -65.2602 -65.2598 -65.2598 -65.2571
   -65.2571 -65.2535 -65.2531 -65.2531 -65.2530 -65.2530 -65.2530 -65.2528
   -65.2528 -65.2523 -65.2523 -65.2520 -65.2520 -65.2495 -65.2468 -65.2468
   -65.2464 -65.2461 -65.2461 -65.2461 -65.2460 -65.2460 -65.2403 -65.2403
   -65.2386 -65.2386 -65.2385 -65.2383 -65.2381 -65.2381 -65.2343 -65.2343
   -65.2276 -65.2276 -65.0844 -65.0840 -65.0840 -65.0829 -65.0829 -65.0824
   -65.0805 -65.0805 -65.0805 -65.0795 -65.0655 -65.0654 -65.0654 -65.0654
   -65.0653 -65.0653 -65.0628 -65.0628 -65.0625 -65.0623 -65.0490 -65.0484
   -65.0484 -65.0474 -65.0474 -65.0471 -65.0357 -65.0357 -65.0301 -65.0301
   -65.0300 -65.0300 -65.0300 -65.0299 -65.0178 -65.0178 -65.0072 -65.0036
   -65.0035 -65.0030 -65.0015 -65.0015 -65.0000 -64.9980 -64.9980 -64.9833
   -64.9785 -64.9785 -64.9785 -64.9784 -64.9784 -64.9784 -64.9760 -64.9760
   -12.5629  -9.8205  -9.8202  -6.2320  -6.2315  -4.3089  -4.1354  -3.5149
    -2.7164  -2.5641  -2.3166  -1.6701  -1.6700  -1.4366  -1.1701  -1.1698
    -1.1698  -1.1697  -1.1697  -1.1696  -0.7672  -0.7653  -0.7653  -0.7653
    -0.7652  -0.7652  -0.5998  -0.4075  -0.2678  -0.2650  -0.2650  -0.2649
    -0.2648  -0.2648  -0.2493   0.1854   0.1854   0.1855   0.1855   0.1861
     0.1884   0.2648   0.2651   0.5354   0.5354   0.5361   0.5363   0.5363
     0.5375   0.6610   0.6610   0.6612   0.6612   0.6612   0.6616   0.7106
     0.7106   0.7108   0.7109   0.7109   0.7113   0.7389   0.7389   0.7528
     0.7528   0.7641   0.7641   0.8598   0.8598   0.8675   0.8675   0.8889
     0.8889   0.8891   0.8894   0.8894   0.8899   0.8978   0.8978   0.8988
     0.8989   0.9493   0.9493   0.9907   0.9907   1.0984   1.0984   1.1021
     1.1021   1.1026   1.1027   1.1027   1.1035   1.1353   1.1353   1.3376
     1.3376   1.3388   1.3391   1.3391   1.3401   1.4682   1.4682   1.4763
     1.4763   1.4906   1.4906   1.4914   1.4914   1.4916   1.4922   1.5301
     1.5356   1.5357   1.5498   1.6041   1.6041   1.6049   1.6049   1.6049
     1.6053   1.6177   1.6178   1.6431   1.6431   1.6745   1.6796   1.6796
     1.6898   1.6898   1.6912   1.6912   1.6914   1.6918   1.7295   1.7295
     1.7422   1.7422   1.7427   1.7427   1.7428   1.7431   1.7619   1.7620
     1.7620   1.7624   1.7624   1.7624   1.7683   1.7683   1.7852   1.8809
     1.8809   1.8884   1.8884   1.8927   1.8927   1.8929   1.8942   1.9070
     1.9070   1.9152   1.9158   1.9354   1.9354   1.9388   1.9389   1.9627
     1.9627   1.9641   1.9641   1.9641   1.9645   1.9646   1.9647   2.1172
     2.1172   2.1575   2.1576   2.1576   2.1600   2.2227   2.2229   2.2229
     2.2231   2.2231   2.2232   2.2396   2.2397   2.2887   2.2887   2.2892
     2.2908   2.2983   2.2983   2.3024   2.3024   2.3243   2.3243   2.3592
     2.3593   2.3640   2.3905   2.3905   2.4200   2.4200   2.4280   2.4280
     2.4281   2.4300   2.4492   2.4492   2.4533   2.4534   2.4534   2.4537
     2.4537   2.4537   2.4576   2.4576   2.4595   2.4595   2.5279   2.5279
     2.5923   2.5924   2.5924   2.5925   2.5926   2.5926   2.6496   2.6502
     2.6502   2.6515   2.6516   2.6516   2.6516   2.6518   2.6518   2.6518
     2.6571   2.6571   2.7161   2.7161   2.7205   2.7205   2.7206   2.7208
     2.7210   2.7210   2.7319   2.7320   2.7320   2.7322   2.7323   2.7323
     2.7564   2.7565   2.7565   2.7567   2.7567   2.7568   2.7885   2.7885
     2.7974   2.7974   2.8267   2.8269   2.8269   2.8273   2.8273   2.8273
     2.8300   2.8301   2.8519   2.8520   2.8520   2.8522   2.8522   2.8523
     2.8806   2.8806   2.8833   2.8833   2.8846   2.8846   2.9038   2.9039
     2.9194   2.9194   2.9194   2.9197   2.9197   2.9197   2.9454   2.9455
     2.9455   2.9467   2.9467   2.9499   2.9683   2.9683   2.9964   2.9964
     2.9964   2.9969   2.9969   2.9969   3.8149   3.9284   3.9284   3.9289
     3.9412   3.9516   3.9516   4.4011   5.3588   5.3588   5.3629   5.3782
     5.3939   5.3939   7.0479   7.0480   7.0609   7.1369   7.2027   7.2027
     7.2664   7.4933   7.4935   7.7895   7.7895   7.7897   7.7897   7.8052
     7.8052   8.1652   8.1833   8.1833   8.2027   8.2027   8.5040   8.6020
     8.6028   8.7795   8.8593   8.8598   8.8645   8.8645   8.9706   8.9706
     8.9933   9.2091   9.4759   9.4759   9.4814   9.4814   9.4939   9.7991
     9.7993   9.8593   9.8598   9.8744  10.5523  10.5608  10.6405  10.6405
    10.6514  10.6514  10.7958  10.7958  10.8428  10.8428  10.8685  11.0605
    11.1651  11.1652  11.2876  11.2876  11.2884  11.3014  11.3014  11.3178
    11.4281  11.6943  11.6943  11.7899  11.7978  11.7978  11.8472  11.8472
    11.8666  11.8666  11.8693  11.9405  11.9405  12.0229  12.0986  12.2130
    12.2131  12.2401  12.3139  12.3139  12.3236  12.4557  12.4557  12.6956
    12.9129  12.9129  12.9134  12.9824  12.9865  12.9865  12.9933  13.0307
    13.0752  13.0904

          k = 0.0000 0.2887 0.0000 ( 61417 PWs)   bands (ev):

  -107.8702-107.8667-107.8654-107.8649-107.8644-107.8632-107.8628-107.8624
  -107.8620-107.8612-107.8611-107.8605-107.8604-107.8602-107.8599-107.8592
  -107.8590-107.8588-107.8561-107.8557-107.8550-107.8549-107.8536-107.8535
  -107.8530-107.8518-107.8518-107.8495-107.8468-107.8458-107.8457-107.8445
  -107.8444-107.8439-107.8430-107.8426-107.6313-107.6284-107.6277-107.6270
  -107.6254-107.6254-107.6242-107.6224-107.6223-107.6107-107.6078-107.6067
  -107.6067-107.6052-107.6052-107.6048-107.6037-107.6037 -65.3236 -65.3145
   -65.3139 -65.3128 -65.3117 -65.3116 -65.3111 -65.3109 -65.3079 -65.3078
   -65.3070 -65.3070 -65.3052 -65.3051 -65.3006 -65.2991 -65.2991 -65.2971
   -65.2965 -65.2955 -65.2953 -65.2952 -65.2950 -65.2948 -65.2928 -65.2927
   -65.2924 -65.2921 -65.2881 -65.2881 -65.2851 -65.2849 -65.2848 -65.2836
   -65.2835 -65.2829 -65.2822 -65.2822 -65.2801 -65.2800 -65.2777 -65.2776
   -65.2743 -65.2742 -65.2740 -65.2737 -65.2728 -65.2728 -65.2719 -65.2710
   -65.2706 -65.2696 -65.2693 -65.2681 -65.2679 -65.2678 -65.2670 -65.2663
   -65.2662 -65.2644 -65.2641 -65.2640 -65.2638 -65.2637 -65.2636 -65.2612
   -65.2611 -65.2590 -65.2589 -65.2582 -65.2582 -65.2567 -65.2565 -65.2563
   -65.2557 -65.2555 -65.2555 -65.2551 -65.2550 -65.2549 -65.2548 -65.2532
   -65.2531 -65.2515 -65.2513 -65.2508 -65.2502 -65.2496 -65.2493 -65.2491
   -65.2490 -65.2485 -65.2477 -65.2456 -65.2455 -65.2439 -65.2423 -65.2423
   -65.2423 -65.2413 -65.2410 -65.2387 -65.2387 -65.2379 -65.2354 -65.2348
   -65.2317 -65.2286 -65.0949 -65.0894 -65.0894 -65.0879 -65.0876 -65.0769
   -65.0762 -65.0760 -65.0713 -65.0712 -65.0705 -65.0703 -65.0702 -65.0701
   -65.0673 -65.0582 -65.0581 -65.0525 -65.0524 -65.0523 -65.0520 -65.0508
   -65.0496 -65.0478 -65.0478 -65.0439 -65.0399 -65.0368 -65.0341 -65.0340
   -65.0330 -65.0300 -65.0299 -65.0260 -65.0221 -65.0189 -65.0069 -65.0042
   -65.0036 -65.0029 -65.0013 -65.0013 -64.9999 -64.9981 -64.9980 -64.9828
   -64.9800 -64.9790 -64.9790 -64.9777 -64.9776 -64.9773 -64.9762 -64.9762
   -12.5621  -9.8240  -9.8210  -6.2348  -6.2273  -4.2826  -3.9219  -3.3057
    -2.6890  -2.3633  -2.3202  -2.3189  -1.7721  -1.7170  -1.6775  -1.6079
    -1.6075  -1.2490  -1.1241  -1.1234  -0.9700  -0.5519  -0.5517  -0.5016
    -0.4603  -0.4495  -0.3414  -0.3389  -0.2654  -0.2650  -0.1303  -0.0972
    -0.0925   0.0052   0.0096   0.0098   0.1854   0.1856   0.2157   0.2267
     0.2634   0.2817   0.2828   0.4654   0.4704   0.5004   0.5004   0.5264
     0.5364   0.5365   0.5603   0.5604   0.6069   0.6081   0.6097   0.6101
     0.6225   0.6226   0.6627   0.6627   0.6995   0.6995   0.7279   0.7279
     0.7360   0.7788   0.7792   0.7936   0.7936   0.8159   0.8161   0.8288
     0.8288   0.8624   0.8625   0.9034   0.9720   0.9720   0.9782   1.0022
     1.0022   1.0164   1.0167   1.0524   1.0525   1.0871   1.0897   1.0897
     1.1524   1.1524   1.1778   1.1790   1.1996   1.1996   1.2446   1.2448
     1.2615   1.2817   1.2879   1.2882   1.3162   1.3568   1.3570   1.3764
     1.3764   1.3833   1.4197   1.4213   1.4320   1.4564   1.4565   1.4638
     1.4962   1.4964   1.5252   1.5620   1.5747   1.5849   1.5850   1.5978
     1.5979   1.5980   1.6352   1.6369   1.6422   1.6545   1.6546   1.6701
     1.6750   1.6752   1.6921   1.6954   1.7052   1.7131   1.7251   1.7334
     1.7336   1.7428   1.7480   1.7481   1.7502   1.7675   1.7681   1.7715
     1.7715   1.7755   1.7957   1.7986   1.8087   1.8196   1.8211   1.8306
     1.8321   1.8438   1.8445   1.8795   1.8797   1.8902   1.8906   1.8912
     1.9058   1.9147   1.9148   1.9163   1.9207   1.9248   1.9309   1.9462
     1.9787   1.9834   1.9901   1.9933   2.0013   2.0015   2.0128   2.0254
     2.0259   2.0268   2.0317   2.0547   2.0548   2.0686   2.1000   2.1054
     2.1328   2.1336   2.1454   2.1471   2.1529   2.1530   2.2155   2.2316
     2.2463   2.2465   2.2589   2.2632   2.2706   2.2767   2.2795   2.2865
     2.3075   2.3161   2.3207   2.3248   2.3273   2.3309   2.3637   2.3646
     2.3892   2.3956   2.3978   2.3995   2.4065   2.4320   2.4369   2.4376
     2.4423   2.4466   2.4739   2.4852   2.4890   2.4955   2.4958   2.5133
     2.5175   2.5178   2.5344   2.5379   2.5381   2.5389   2.5474   2.5508
     2.5751   2.5850   2.6227   2.6265   2.6321   2.6601   2.6611   2.6693
     2.6723   2.6727   2.6736   2.6769   2.6969   2.6971   2.6996   2.7120
     2.7143   2.7168   2.7201   2.7237   2.7487   2.7656   2.7656   2.7700
     2.7795   2.7798   2.8006   2.8014   2.8076   2.8088   2.8525   2.8531
     2.8531   2.8630   2.8630   2.8661   2.8768   2.8778   2.8855   2.8882
     2.8882   2.8888   2.8959   2.8960   2.8977   2.9038   2.9121   2.9122
     2.9298   2.9425   2.9425   2.9432   2.9448   2.9504   2.9519   2.9521
     2.9740   2.9832   2.9898   2.9943   2.9946   2.9991   3.0120   3.0123
     3.0860   3.1018   3.1410   3.2366   3.2596   3.2597   3.3341   3.4202
     3.4203   3.6738   3.7265   3.7266   3.7303   3.7402   4.0390   4.2275
     4.4173   4.7013   4.7020   4.9104   5.0005   5.0095   5.0506   5.7864
     5.7865   6.0016   6.1568   6.1654   6.1851   6.1855   6.4359   6.6828
     6.7249   6.8640   6.8693   7.2655   7.3799   7.4317   7.4677   7.6855
     7.7198   7.7288   7.9129   7.9691   8.1795   8.1846   8.2644   8.3328
     8.3677   8.6544   8.6557   8.7669   8.8104   8.9208   9.2051   9.2064
     9.3062   9.3714   9.5619   9.6017   9.7588   9.8048   9.9144   9.9437
     9.9606   9.9654  10.0105  10.0719  10.2589  10.3559  10.3566  10.4710
    10.4979  10.5198  10.5990  10.6085  10.6930  10.7364  10.7398  10.8065
    10.9017  10.9034  10.9194  11.0795  11.1005  11.2098  11.4104  11.4323
    11.4480  11.4888  11.5073  11.5720  11.6580  11.7575  11.9019  11.9998
    12.0178  12.1424  12.1979  12.2836  12.3035  12.4023  12.4778  12.5140
    12.5260  12.5606  12.5890  12.6601  12.8043  12.8051  12.8353  12.8654
    12.9414  12.9799  13.0940  13.1126  13.1618  13.1962  13.1992  13.3025
    13.3944  13.4667

          k = 0.0000-0.5774 0.0000 ( 61408 PWs)   bands (ev):

  -107.8690-107.8682-107.8657-107.8652-107.8642-107.8631-107.8623-107.8618
  -107.8615-107.8614-107.8613-107.8611-107.8609-107.8601-107.8594-107.8593
  -107.8590-107.8578-107.8574-107.8557-107.8552-107.8551-107.8530-107.8530
  -107.8528-107.8521-107.8520-107.8486-107.8481-107.8460-107.8459-107.8441
  -107.8436-107.8436-107.8435-107.8427-107.6307-107.6294-107.6278-107.6271
  -107.6253-107.6251-107.6242-107.6225-107.6223-107.6095-107.6094-107.6069
  -107.6069-107.6045-107.6044-107.6044-107.6043-107.6043 -65.3199 -65.3194
   -65.3171 -65.3157 -65.3118 -65.3117 -65.3106 -65.3105 -65.3099 -65.3098
   -65.3089 -65.3087 -65.3086 -65.3082 -65.3046 -65.2981 -65.2977 -65.2977
   -65.2972 -65.2971 -65.2968 -65.2967 -65.2960 -65.2958 -65.2934 -65.2934
   -65.2930 -65.2928 -65.2859 -65.2858 -65.2848 -65.2846 -65.2843 -65.2839
   -65.2827 -65.2790 -65.2790 -65.2762 -65.2753 -65.2753 -65.2752 -65.2750
   -65.2748 -65.2740 -65.2723 -65.2722 -65.2717 -65.2715 -65.2713 -65.2711
   -65.2682 -65.2681 -65.2681 -65.2674 -65.2673 -65.2670 -65.2667 -65.2654
   -65.2624 -65.2621 -65.2617 -65.2616 -65.2615 -65.2609 -65.2608 -65.2607
   -65.2607 -65.2606 -65.2605 -65.2598 -65.2577 -65.2576 -65.2572 -65.2570
   -65.2567 -65.2562 -65.2546 -65.2544 -65.2536 -65.2534 -65.2534 -65.2531
   -65.2522 -65.2519 -65.2519 -65.2510 -65.2503 -65.2501 -65.2501 -65.2495
   -65.2495 -65.2491 -65.2491 -65.2462 -65.2461 -65.2460 -65.2459 -65.2447
   -65.2439 -65.2424 -65.2421 -65.2420 -65.2401 -65.2399 -65.2384 -65.2381
   -65.2314 -65.2310 -65.0990 -65.0917 -65.0917 -65.0907 -65.0903 -65.0811
   -65.0733 -65.0732 -65.0732 -65.0731 -65.0725 -65.0723 -65.0607 -65.0605
   -65.0596 -65.0594 -65.0546 -65.0545 -65.0524 -65.0520 -65.0512 -65.0488
   -65.0484 -65.0422 -65.0421 -65.0421 -65.0420 -65.0404 -65.0392 -65.0341
   -65.0338 -65.0337 -65.0310 -65.0309 -65.0220 -65.0219 -65.0063 -65.0050
   -65.0037 -65.0030 -65.0012 -65.0011 -64.9999 -64.9981 -64.9980 -64.9817
   -64.9816 -64.9792 -64.9792 -64.9769 -64.9769 -64.9769 -64.9768 -64.9767
   -12.5613  -9.8275  -9.8218  -6.2380  -6.2227  -4.2557  -3.2964  -3.2962
    -2.6977  -2.6976  -2.6611  -2.3240  -1.8035  -1.7901  -1.7640  -1.7637
    -1.7512  -1.6839  -1.2539  -1.2531  -0.7497  -0.7256  -0.5397  -0.5311
    -0.4071  -0.1511   0.0327   0.0337   0.0477   0.0529   0.0530   0.0532
     0.0532   0.1407   0.1788   0.2132   0.2209   0.2220   0.2258   0.2321
     0.2508   0.2510   0.2510   0.2511   0.2647   0.3068   0.3070   0.3071
     0.3073   0.4339   0.4715   0.4716   0.4719   0.4720   0.5112   0.5532
     0.6490   0.6490   0.6492   0.6492   0.6634   0.6858   0.6871   0.7030
     0.7030   0.7033   0.7034   0.8230   0.8231   0.8232   0.8233   0.8457
     0.8462   0.9343   0.9466   0.9467   0.9469   0.9470   0.9832   0.9833
     1.0277   1.0277   1.0985   1.0986   1.0988   1.0989   1.1595   1.1595
     1.1890   1.1894   1.2094   1.2096   1.2100   1.2102   1.2277   1.2277
     1.2627   1.2653   1.3153   1.3282   1.3287   1.3564   1.3569   1.3763
     1.3777   1.3857   1.3857   1.3861   1.3861   1.4425   1.4434   1.4474
     1.4475   1.4479   1.4479   1.4985   1.5010   1.5219   1.5221   1.5224
     1.5225   1.5318   1.5332   1.5332   1.5882   1.5939   1.6172   1.6189
     1.6194   1.6323   1.6364   1.6699   1.6703   1.6705   1.6707   1.6707
     1.6828   1.6859   1.7339   1.7342   1.7435   1.7440   1.7563   1.7565
     1.7909   1.7912   1.7913   1.7914   1.8138   1.8146   1.8156   1.8158
     1.8160   1.8441   1.8443   1.8451   1.8454   1.8766   1.8768   1.8974
     1.9069   1.9072   1.9678   1.9689   1.9754   1.9758   1.9770   1.9774
     1.9799   1.9799   1.9876   1.9893   1.9960   1.9961   2.0032   2.0208
     2.0229   2.0291   2.0298   2.0310   2.0313   2.0921   2.1026   2.1110
     2.1110   2.1322   2.1732   2.1926   2.1933   2.1935   2.1969   2.2004
     2.2009   2.2016   2.2073   2.2078   2.2232   2.2297   2.2341   2.2689
     2.2725   2.2727   2.2741   2.2925   2.2928   2.2930   2.2930   2.2957
     2.2983   2.3170   2.3188   2.3189   2.3268   2.3299   2.3329   2.4045
     2.4379   2.4491   2.4492   2.4769   2.4769   2.4775   2.4780   2.5091
     2.5098   2.5134   2.5260   2.5487   2.5496   2.5528   2.5529   2.5628
     2.5759   2.5858   2.5897   2.5898   2.5899   2.5901   2.6027   2.6233
     2.6234   2.6249   2.6270   2.6791   2.6792   2.6797   2.6800   2.6903
     2.6912   2.7161   2.7163   2.7456   2.7459   2.7500   2.7509   2.7772
     2.7772   2.8019   2.8047   2.8087   2.8256   2.8652   2.8669   2.8778
     2.8789   2.8869   2.8871   2.9019   2.9151   2.9152   2.9193   2.9196
     2.9211   2.9219   2.9376   2.9420   2.9421   2.9423   2.9426   2.9598
     2.9605   2.9607   2.9679   2.9720   2.9868   2.9894   3.0084   3.0086
     3.0089   3.0101   3.0164   3.0250   3.0459   3.0591   3.0592   3.0600
     3.0601   3.1653   3.1810   3.6973   3.7115   3.7142   3.7196   4.2265
     4.2708   4.2708   4.2711   4.2711   4.5408   4.5413   4.5419   4.5420
     4.8885   4.8939   4.9088   5.0128   5.0393   5.0964   5.0991   5.1003
     5.1021   5.3853   5.7244   5.9792   6.0022   6.0115   6.0706   6.0815
     6.0836   6.0883   6.1416   6.5425   6.5890   7.2459   7.3381   7.3926
     7.3930   7.4074   7.5974   7.9484   7.9820   8.1190   8.2522   8.3936
     8.5152   8.5178   8.5190   8.5354   8.8780   8.9061   8.9152   9.1634
     9.1666   9.1672   9.1754   9.2563   9.4628   9.5870   9.6793   9.7731
     9.7869   9.8267   9.8444   9.8627   9.8956  10.2560  10.3299  10.3469
    10.3836  10.4257  10.4630  10.4686  10.4869  10.8051  10.8678  11.0220
    11.1056  11.1853  11.2467  11.2585  11.3191  11.3884  11.3982  11.4167
    11.4725  11.5443  11.7020  12.0295  12.0985  12.1388  12.1822  12.2293
    12.2459  12.2919  12.4469  12.4995  12.7357  12.8029  12.8725  12.9461
    12.9574  13.0053  13.0261  13.0552  13.0730  13.1924  13.1942  13.2115
    13.2172  13.2692  13.3079  13.3186  13.4458  13.5969  13.6466  13.6467
    13.7066  13.7992

          k = 0.2500-0.7217 0.0000 ( 61343 PWs)   bands (ev):

  -107.8692-107.8676-107.8668-107.8648-107.8632-107.8631-107.8628-107.8621
  -107.8619-107.8614-107.8612-107.8608-107.8607-107.8599-107.8597-107.8592
  -107.8590-107.8580-107.8568-107.8564-107.8557-107.8540-107.8535-107.8529
  -107.8528-107.8521-107.8519-107.8487-107.8475-107.8470-107.8449-107.8444
  -107.8439-107.8436-107.8434-107.8427-107.6307-107.6291-107.6284-107.6268
  -107.6253-107.6251-107.6242-107.6225-107.6223-107.6099-107.6084-107.6084
  -107.6055-107.6054-107.6044-107.6044-107.6043-107.6040 -65.3209 -65.3165
   -65.3159 -65.3151 -65.3148 -65.3138 -65.3135 -65.3122 -65.3105 -65.3089
   -65.3086 -65.3076 -65.3048 -65.3030 -65.3025 -65.3024 -65.3022 -65.2997
   -65.2968 -65.2961 -65.2960 -65.2959 -65.2956 -65.2941 -65.2939 -65.2930
   -65.2922 -65.2920 -65.2893 -65.2889 -65.2841 -65.2837 -65.2833 -65.2825
   -65.2801 -65.2798 -65.2791 -65.2789 -65.2786 -65.2758 -65.2752 -65.2750
   -65.2740 -65.2733 -65.2729 -65.2727 -65.2718 -65.2691 -65.2688 -65.2687
   -65.2685 -65.2684 -65.2682 -65.2670 -65.2668 -65.2664 -65.2661 -65.2648
   -65.2646 -65.2633 -65.2631 -65.2629 -65.2626 -65.2622 -65.2605 -65.2594
   -65.2592 -65.2591 -65.2589 -65.2585 -65.2580 -65.2576 -65.2574 -65.2572
   -65.2570 -65.2558 -65.2556 -65.2549 -65.2544 -65.2541 -65.2537 -65.2524
   -65.2521 -65.2514 -65.2513 -65.2513 -65.2511 -65.2510 -65.2509 -65.2507
   -65.2489 -65.2486 -65.2482 -65.2464 -65.2462 -65.2454 -65.2452 -65.2452
   -65.2444 -65.2442 -65.2421 -65.2411 -65.2410 -65.2401 -65.2365 -65.2346
   -65.2345 -65.2308 -65.0970 -65.0965 -65.0939 -65.0873 -65.0837 -65.0829
   -65.0788 -65.0788 -65.0760 -65.0694 -65.0655 -65.0654 -65.0640 -65.0622
   -65.0609 -65.0607 -65.0557 -65.0550 -65.0543 -65.0538 -65.0477 -65.0459
   -65.0439 -65.0431 -65.0430 -65.0430 -65.0430 -65.0390 -65.0373 -65.0372
   -65.0364 -65.0364 -65.0298 -65.0253 -65.0252 -65.0212 -65.0064 -65.0047
   -65.0041 -65.0027 -65.0012 -65.0011 -64.9999 -64.9982 -64.9979 -64.9820
   -64.9807 -64.9806 -64.9779 -64.9778 -64.9769 -64.9769 -64.9767 -64.9765
   -12.5613  -9.8261  -9.8232  -6.2342  -6.2266  -4.2559  -3.5019  -2.8965
    -2.6957  -2.6956  -2.6610  -2.3237  -2.1221  -2.1217  -1.9754  -1.7461
    -1.7057  -1.2656  -1.2623  -0.8965  -0.6849  -0.6848  -0.4557  -0.3344
    -0.3336  -0.2911  -0.2646  -0.0940  -0.0939  -0.0843   0.0804   0.0813
     0.1006   0.1008   0.1170   0.1667   0.1788   0.1789   0.1959   0.2044
     0.2449   0.2948   0.2983   0.3016   0.3016   0.3747   0.3788   0.4395
     0.4400   0.4517   0.4626   0.4902   0.4903   0.4931   0.5116   0.5125
     0.5794   0.5797   0.6053   0.6070   0.6372   0.6373   0.6625   0.6716
     0.6718   0.7397   0.7398   0.7667   0.7888   0.7997   0.8000   0.8752
     0.8754   0.9265   0.9460   0.9462   0.9750   0.9751   1.0326   1.0418
     1.0421   1.0574   1.0575   1.0716   1.1101   1.1375   1.1376   1.1800
     1.1803   1.2072   1.2123   1.2129   1.2143   1.2307   1.2308   1.2900
     1.2903   1.2933   1.2934   1.2967   1.3090   1.3261   1.3272   1.3402
     1.3407   1.3681   1.3693   1.3919   1.3933   1.3942   1.4132   1.4378
     1.4786   1.4866   1.4868   1.4870   1.4880   1.5169   1.5358   1.5395
     1.5405   1.5775   1.5777   1.5785   1.5814   1.5876   1.6107   1.6319
     1.6319   1.6487   1.6488   1.6746   1.6764   1.6860   1.6861   1.6978
     1.6985   1.7132   1.7134   1.7309   1.7311   1.7460   1.7544   1.7781
     1.7880   1.7918   1.7972   1.8145   1.8166   1.8171   1.8242   1.8323
     1.8331   1.8427   1.8428   1.8567   1.8589   1.8615   1.8620   1.8644
     1.8842   1.8899   1.9127   1.9278   1.9303   1.9373   1.9412   1.9421
     1.9495   1.9502   1.9503   1.9536   1.9586   1.9628   1.9649   1.9655
     2.0241   2.0253   2.0856   2.0861   2.0959   2.0990   2.1001   2.1038
     2.1280   2.1282   2.1366   2.1379   2.1522   2.1719   2.1797   2.1817
     2.2030   2.2073   2.2312   2.2457   2.2515   2.2642   2.2650   2.2679
     2.2684   2.2703   2.2730   2.2775   2.2796   2.2856   2.3067   2.3179
     2.3517   2.3543   2.3556   2.3592   2.3656   2.3686   2.3737   2.3983
     2.4032   2.4090   2.4223   2.4464   2.4479   2.4656   2.4719   2.4728
     2.4834   2.4861   2.5169   2.5252   2.5306   2.5312   2.5576   2.5582
     2.5799   2.5861   2.5868   2.6050   2.6062   2.6285   2.6291   2.6301
     2.6335   2.6365   2.6493   2.6494   2.6541   2.6605   2.6641   2.6816
     2.7184   2.7247   2.7250   2.7282   2.7756   2.7759   2.7864   2.7884
     2.8186   2.8312   2.8318   2.8375   2.8379   2.8520   2.8550   2.8820
     2.8828   2.8829   2.8924   2.8926   2.9037   2.9057   2.9070   2.9073
     2.9093   2.9164   2.9166   2.9175   2.9200   2.9344   2.9351   2.9499
     2.9505   2.9565   2.9610   2.9612   2.9726   2.9886   2.9933   2.9995
     2.9999   3.0170   3.0480   3.0482   3.0592   3.0804   3.0809   3.2353
     3.2403   3.3484   3.3485   3.4502   3.4506   3.5542   3.7748   3.7774
     4.1545   4.1669   4.2590   4.2593   4.2725   4.5349   4.6442   4.6508
     4.6670   4.6671   4.7941   5.1125   5.1401   5.1411   5.5850   5.6248
     5.6454   5.6939   5.8774   5.8958   5.8976   6.0275   6.0345   6.1187
     6.1918   6.5637   6.6414   6.6436   6.8163   6.8846   6.9631   7.0206
     7.0214   7.3047   7.3718   7.3796   7.5692   7.7697   7.8484   7.9335
     8.4392   8.4433   8.4683   8.5467   8.7206   9.0369   9.1008   9.1310
     9.2045   9.2936   9.3226   9.4455   9.4553   9.6235   9.6495   9.6641
     9.7807   9.8428  10.0102  10.1154  10.1463  10.3318  10.3948  10.4605
    10.4979  10.5763  10.6602  10.7764  10.8139  11.0394  11.1251  11.1517
    11.2462  11.2714  11.4180  11.4465  11.4518  11.5881  11.6203  11.6770
    11.6874  11.7763  11.8211  11.8402  11.9857  12.0801  12.1261  12.1676
    12.2649  12.3423  12.3719  12.4017  12.4635  12.4860  12.5503  12.5959
    12.6940  12.7104  12.7987  12.8978  12.9386  12.9604  13.1425  13.2439
    13.2622  13.2839  13.3639  13.3950  13.4632  13.4940  13.5285  13.6231
    13.6481  13.6692

          k =-0.2500 0.1443 0.0000 ( 61417 PWs)   bands (ev):

  -107.8702-107.8667-107.8654-107.8649-107.8644-107.8632-107.8628-107.8624
  -107.8620-107.8612-107.8611-107.8605-107.8604-107.8602-107.8599-107.8592
  -107.8590-107.8588-107.8561-107.8557-107.8550-107.8549-107.8536-107.8535
  -107.8530-107.8518-107.8518-107.8495-107.8468-107.8458-107.8457-107.8445
  -107.8444-107.8439-107.8430-107.8426-107.6313-107.6285-107.6277-107.6270
  -107.6254-107.6254-107.6242-107.6224-107.6223-107.6107-107.6078-107.6067
  -107.6067-107.6052-107.6052-107.6048-107.6037-107.6037 -65.3236 -65.3145
   -65.3139 -65.3128 -65.3117 -65.3116 -65.3111 -65.3109 -65.3079 -65.3078
   -65.3070 -65.3070 -65.3052 -65.3051 -65.3006 -65.2991 -65.2991 -65.2971
   -65.2965 -65.2955 -65.2953 -65.2952 -65.2950 -65.2948 -65.2928 -65.2927
   -65.2924 -65.2921 -65.2881 -65.2881 -65.2851 -65.2849 -65.2848 -65.2836
   -65.2835 -65.2829 -65.2822 -65.2822 -65.2801 -65.2800 -65.2777 -65.2776
   -65.2743 -65.2742 -65.2740 -65.2737 -65.2728 -65.2728 -65.2719 -65.2710
   -65.2706 -65.2696 -65.2693 -65.2681 -65.2679 -65.2678 -65.2670 -65.2663
   -65.2662 -65.2644 -65.2641 -65.2640 -65.2638 -65.2637 -65.2636 -65.2612
   -65.2611 -65.2590 -65.2589 -65.2582 -65.2582 -65.2567 -65.2565 -65.2563
   -65.2557 -65.2555 -65.2555 -65.2551 -65.2550 -65.2549 -65.2548 -65.2532
   -65.2531 -65.2515 -65.2513 -65.2508 -65.2502 -65.2496 -65.2493 -65.2491
   -65.2490 -65.2485 -65.2477 -65.2456 -65.2455 -65.2439 -65.2423 -65.2423
   -65.2423 -65.2413 -65.2410 -65.2387 -65.2387 -65.2379 -65.2354 -65.2348
   -65.2317 -65.2286 -65.0949 -65.0894 -65.0894 -65.0879 -65.0876 -65.0769
   -65.0762 -65.0760 -65.0713 -65.0712 -65.0705 -65.0703 -65.0702 -65.0701
   -65.0673 -65.0582 -65.0581 -65.0525 -65.0524 -65.0523 -65.0520 -65.0508
   -65.0496 -65.0478 -65.0478 -65.0439 -65.0399 -65.0368 -65.0341 -65.0340
   -65.0330 -65.0300 -65.0299 -65.0260 -65.0221 -65.0189 -65.0069 -65.0042
   -65.0036 -65.0029 -65.0013 -65.0013 -64.9999 -64.9981 -64.9980 -64.9828
   -64.9800 -64.9790 -64.9790 -64.9777 -64.9776 -64.9773 -64.9762 -64.9762
   -12.5621  -9.8238  -9.8212  -6.2352  -6.2269  -4.2826  -3.9219  -3.3057
    -2.6890  -2.3633  -2.3202  -2.3189  -1.7721  -1.7169  -1.6776  -1.6079
    -1.6075  -1.2490  -1.1241  -1.1234  -0.9700  -0.5519  -0.5517  -0.5016
    -0.4603  -0.4495  -0.3414  -0.3389  -0.2654  -0.2650  -0.1303  -0.0972
    -0.0925   0.0052   0.0096   0.0098   0.1854   0.1856   0.2157   0.2269
     0.2632   0.2817   0.2828   0.4654   0.4704   0.5004   0.5004   0.5264
     0.5364   0.5365   0.5603   0.5604   0.6069   0.6081   0.6097   0.6101
     0.6225   0.6226   0.6627   0.6627   0.6995   0.6995   0.7279   0.7279
     0.7360   0.7788   0.7792   0.7936   0.7936   0.8159   0.8161   0.8288
     0.8288   0.8624   0.8625   0.9034   0.9720   0.9720   0.9782   1.0022
     1.0022   1.0164   1.0167   1.0524   1.0525   1.0871   1.0897   1.0897
     1.1524   1.1524   1.1778   1.1790   1.1996   1.1996   1.2446   1.2448
     1.2615   1.2817   1.2879   1.2882   1.3162   1.3568   1.3570   1.3764
     1.3764   1.3833   1.4197   1.4213   1.4320   1.4564   1.4565   1.4638
     1.4962   1.4964   1.5252   1.5620   1.5747   1.5849   1.5850   1.5978
     1.5979   1.5980   1.6352   1.6369   1.6422   1.6545   1.6546   1.6701
     1.6750   1.6752   1.6921   1.6954   1.7052   1.7131   1.7251   1.7334
     1.7336   1.7428   1.7480   1.7481   1.7502   1.7674   1.7681   1.7715
     1.7715   1.7755   1.7957   1.7986   1.8087   1.8196   1.8211   1.8306
     1.8321   1.8438   1.8445   1.8795   1.8797   1.8902   1.8906   1.8912
     1.9058   1.9147   1.9148   1.9163   1.9207   1.9248   1.9309   1.9462
     1.9787   1.9834   1.9901   1.9933   2.0013   2.0015   2.0128   2.0254
     2.0259   2.0268   2.0317   2.0547   2.0548   2.0686   2.1000   2.1054
     2.1328   2.1336   2.1454   2.1471   2.1529   2.1530   2.2155   2.2316
     2.2463   2.2466   2.2589   2.2631   2.2706   2.2767   2.2795   2.2865
     2.3075   2.3161   2.3207   2.3248   2.3273   2.3308   2.3637   2.3646
     2.3892   2.3956   2.3978   2.3995   2.4065   2.4320   2.4369   2.4376
     2.4423   2.4466   2.4739   2.4852   2.4890   2.4955   2.4958   2.5133
     2.5175   2.5178   2.5344   2.5379   2.5381   2.5389   2.5474   2.5508
     2.5751   2.5850   2.6227   2.6265   2.6321   2.6601   2.6611   2.6693
     2.6723   2.6727   2.6736   2.6769   2.6969   2.6971   2.6996   2.7120
     2.7143   2.7168   2.7201   2.7237   2.7487   2.7656   2.7656   2.7700
     2.7795   2.7798   2.8006   2.8014   2.8076   2.8088   2.8525   2.8531
     2.8531   2.8630   2.8630   2.8661   2.8768   2.8778   2.8855   2.8882
     2.8882   2.8888   2.8959   2.8960   2.8977   2.9038   2.9121   2.9122
     2.9298   2.9425   2.9425   2.9432   2.9448   2.9504   2.9519   2.9521
     2.9740   2.9832   2.9898   2.9943   2.9946   2.9991   3.0120   3.0123
     3.0860   3.1018   3.1410   3.2366   3.2596   3.2597   3.3341   3.4202
     3.4203   3.6738   3.7265   3.7266   3.7303   3.7402   4.0390   4.2275
     4.4173   4.7013   4.7020   4.9104   5.0005   5.0095   5.0506   5.7864
     5.7865   6.0016   6.1568   6.1654   6.1851   6.1855   6.4359   6.6828
     6.7249   6.8640   6.8693   7.2655   7.3801   7.4316   7.4676   7.6855
     7.7198   7.7289   7.9129   7.9691   8.1795   8.1846   8.2643   8.3328
     8.3677   8.6544   8.6557   8.7669   8.8104   8.9207   9.2051   9.2064
     9.3062   9.3713   9.5619   9.6017   9.7589   9.8048   9.9144   9.9437
     9.9606   9.9654  10.0105  10.0720  10.2589  10.3559  10.3566  10.4710
    10.4978  10.5198  10.5990  10.6085  10.6930  10.7364  10.7397  10.8065
    10.9017  10.9034  10.9194  11.0795  11.1005  11.2098  11.4104  11.4323
    11.4480  11.4888  11.5074  11.5720  11.6580  11.7575  11.9020  11.9998
    12.0178  12.1424  12.1979  12.2836  12.3035  12.4023  12.4777  12.5140
    12.5260  12.5607  12.5890  12.6601  12.8044  12.8051  12.8353  12.8655
    12.9415  12.9799  13.0940  13.1126  13.1618  13.1962  13.1992  13.3025
    13.3943  13.4667

          k = 0.2500 0.1443 0.0000 ( 61417 PWs)   bands (ev):

  -107.8702-107.8667-107.8654-107.8649-107.8644-107.8632-107.8628-107.8624
  -107.8620-107.8612-107.8611-107.8605-107.8604-107.8602-107.8599-107.8592
  -107.8590-107.8588-107.8561-107.8557-107.8550-107.8549-107.8536-107.8535
  -107.8530-107.8518-107.8518-107.8495-107.8468-107.8458-107.8457-107.8445
  -107.8444-107.8439-107.8430-107.8426-107.6313-107.6285-107.6277-107.6270
  -107.6254-107.6254-107.6242-107.6224-107.6223-107.6107-107.6078-107.6067
  -107.6067-107.6052-107.6052-107.6048-107.6037-107.6037 -65.3236 -65.3145
   -65.3139 -65.3128 -65.3117 -65.3116 -65.3111 -65.3109 -65.3079 -65.3078
   -65.3070 -65.3070 -65.3052 -65.3051 -65.3006 -65.2991 -65.2991 -65.2971
   -65.2965 -65.2955 -65.2953 -65.2952 -65.2950 -65.2948 -65.2928 -65.2927
   -65.2924 -65.2921 -65.2881 -65.2881 -65.2851 -65.2849 -65.2848 -65.2836
   -65.2835 -65.2829 -65.2822 -65.2822 -65.2801 -65.2800 -65.2777 -65.2776
   -65.2743 -65.2742 -65.2740 -65.2737 -65.2728 -65.2728 -65.2719 -65.2710
   -65.2706 -65.2696 -65.2693 -65.2681 -65.2679 -65.2678 -65.2670 -65.2663
   -65.2662 -65.2644 -65.2641 -65.2640 -65.2638 -65.2637 -65.2636 -65.2612
   -65.2611 -65.2590 -65.2589 -65.2582 -65.2582 -65.2567 -65.2565 -65.2563
   -65.2557 -65.2555 -65.2555 -65.2551 -65.2550 -65.2549 -65.2548 -65.2532
   -65.2531 -65.2515 -65.2513 -65.2508 -65.2502 -65.2496 -65.2493 -65.2491
   -65.2490 -65.2485 -65.2477 -65.2456 -65.2455 -65.2439 -65.2423 -65.2423
   -65.2423 -65.2413 -65.2410 -65.2387 -65.2387 -65.2379 -65.2354 -65.2348
   -65.2317 -65.2286 -65.0949 -65.0894 -65.0894 -65.0879 -65.0876 -65.0769
   -65.0762 -65.0760 -65.0713 -65.0712 -65.0705 -65.0703 -65.0702 -65.0701
   -65.0673 -65.0582 -65.0581 -65.0525 -65.0524 -65.0523 -65.0520 -65.0508
   -65.0496 -65.0478 -65.0478 -65.0439 -65.0399 -65.0368 -65.0341 -65.0340
   -65.0330 -65.0300 -65.0299 -65.0260 -65.0221 -65.0189 -65.0069 -65.0042
   -65.0036 -65.0029 -65.0013 -65.0013 -64.9999 -64.9981 -64.9980 -64.9828
   -64.9800 -64.9790 -64.9790 -64.9777 -64.9776 -64.9773 -64.9762 -64.9762
   -12.5621  -9.8239  -9.8212  -6.2351  -6.2270  -4.2826  -3.9219  -3.3057
    -2.6890  -2.3633  -2.3202  -2.3189  -1.7721  -1.7170  -1.6775  -1.6079
    -1.6075  -1.2490  -1.1241  -1.1234  -0.9700  -0.5519  -0.5517  -0.5016
    -0.4603  -0.4495  -0.3414  -0.3389  -0.2654  -0.2650  -0.1303  -0.0972
    -0.0925   0.0052   0.0096   0.0098   0.1854   0.1856   0.2157   0.2268
     0.2633   0.2817   0.2828   0.4654   0.4704   0.5004   0.5004   0.5264
     0.5364   0.5365   0.5603   0.5604   0.6069   0.6081   0.6097   0.6101
     0.6225   0.6226   0.6627   0.6627   0.6995   0.6995   0.7279   0.7279
     0.7360   0.7788   0.7792   0.7936   0.7936   0.8159   0.8161   0.8288
     0.8288   0.8624   0.8625   0.9034   0.9720   0.9720   0.9782   1.0022
     1.0022   1.0164   1.0167   1.0524   1.0525   1.0871   1.0897   1.0897
     1.1524   1.1524   1.1778   1.1790   1.1996   1.1996   1.2446   1.2448
     1.2615   1.2817   1.2879   1.2882   1.3162   1.3568   1.3570   1.3764
     1.3764   1.3833   1.4197   1.4213   1.4320   1.4564   1.4565   1.4638
     1.4962   1.4964   1.5252   1.5620   1.5747   1.5849   1.5850   1.5978
     1.5979   1.5980   1.6352   1.6369   1.6422   1.6545   1.6546   1.6701
     1.6750   1.6752   1.6921   1.6954   1.7052   1.7131   1.7251   1.7334
     1.7336   1.7428   1.7480   1.7481   1.7502   1.7674   1.7681   1.7715
     1.7715   1.7755   1.7957   1.7986   1.8087   1.8196   1.8211   1.8306
     1.8321   1.8438   1.8445   1.8795   1.8797   1.8902   1.8906   1.8912
     1.9058   1.9147   1.9148   1.9163   1.9207   1.9248   1.9309   1.9462
     1.9787   1.9834   1.9901   1.9933   2.0013   2.0015   2.0128   2.0254
     2.0259   2.0268   2.0317   2.0547   2.0548   2.0686   2.1000   2.1054
     2.1328   2.1336   2.1454   2.1471   2.1529   2.1530   2.2155   2.2316
     2.2463   2.2466   2.2589   2.2631   2.2706   2.2767   2.2795   2.2865
     2.3075   2.3161   2.3207   2.3248   2.3273   2.3308   2.3637   2.3646
     2.3892   2.3956   2.3978   2.3995   2.4065   2.4320   2.4369   2.4376
     2.4423   2.4466   2.4739   2.4852   2.4890   2.4955   2.4958   2.5133
     2.5175   2.5178   2.5344   2.5379   2.5381   2.5389   2.5474   2.5508
     2.5751   2.5850   2.6227   2.6265   2.6321   2.6601   2.6611   2.6693
     2.6723   2.6727   2.6736   2.6769   2.6969   2.6971   2.6996   2.7120
     2.7143   2.7168   2.7201   2.7237   2.7487   2.7656   2.7656   2.7700
     2.7795   2.7798   2.8006   2.8014   2.8076   2.8088   2.8525   2.8531
     2.8531   2.8630   2.8630   2.8661   2.8768   2.8778   2.8855   2.8882
     2.8882   2.8888   2.8959   2.8960   2.8977   2.9038   2.9121   2.9122
     2.9298   2.9425   2.9425   2.9432   2.9448   2.9504   2.9519   2.9521
     2.9740   2.9832   2.9898   2.9943   2.9946   2.9991   3.0120   3.0123
     3.0860   3.1018   3.1410   3.2366   3.2596   3.2597   3.3341   3.4202
     3.4203   3.6738   3.7265   3.7266   3.7303   3.7402   4.0390   4.2275
     4.4173   4.7013   4.7020   4.9104   5.0005   5.0095   5.0506   5.7864
     5.7865   6.0016   6.1568   6.1654   6.1851   6.1855   6.4359   6.6828
     6.7249   6.8640   6.8693   7.2655   7.3800   7.4316   7.4676   7.6855
     7.7198   7.7289   7.9129   7.9691   8.1795   8.1846   8.2643   8.3328
     8.3677   8.6544   8.6557   8.7669   8.8104   8.9207   9.2051   9.2064
     9.3062   9.3713   9.5619   9.6017   9.7588   9.8048   9.9144   9.9437
     9.9606   9.9654  10.0105  10.0720  10.2589  10.3559  10.3566  10.4710
    10.4979  10.5198  10.5990  10.6085  10.6930  10.7364  10.7397  10.8065
    10.9017  10.9034  10.9194  11.0795  11.1005  11.2098  11.4104  11.4323
    11.4480  11.4888  11.5074  11.5720  11.6580  11.7575  11.9020  11.9998
    12.0178  12.1424  12.1979  12.2836  12.3035  12.4023  12.4777  12.5140
    12.5260  12.5607  12.5890  12.6601  12.8044  12.8051  12.8353  12.8655
    12.9414  12.9799  13.0940  13.1126  13.1618  13.1962  13.1992  13.3025
    13.3944  13.4667

          k = 0.5000-0.2887 0.0000 ( 61408 PWs)   bands (ev):

  -107.8690-107.8682-107.8657-107.8652-107.8642-107.8631-107.8623-107.8618
  -107.8615-107.8614-107.8613-107.8611-107.8609-107.8601-107.8594-107.8593
  -107.8590-107.8578-107.8574-107.8557-107.8552-107.8551-107.8530-107.8530
  -107.8528-107.8521-107.8520-107.8486-107.8481-107.8460-107.8459-107.8441
  -107.8436-107.8436-107.8435-107.8427-107.6307-107.6294-107.6278-107.6271
  -107.6253-107.6251-107.6242-107.6225-107.6223-107.6095-107.6094-107.6069
  -107.6069-107.6045-107.6044-107.6044-107.6043-107.6043 -65.3199 -65.3194
   -65.3171 -65.3157 -65.3118 -65.3117 -65.3106 -65.3105 -65.3099 -65.3097
   -65.3089 -65.3087 -65.3086 -65.3082 -65.3046 -65.2981 -65.2977 -65.2977
   -65.2972 -65.2971 -65.2968 -65.2967 -65.2960 -65.2958 -65.2934 -65.2934
   -65.2930 -65.2928 -65.2859 -65.2858 -65.2848 -65.2846 -65.2843 -65.2839
   -65.2827 -65.2790 -65.2790 -65.2762 -65.2753 -65.2753 -65.2752 -65.2750
   -65.2748 -65.2740 -65.2723 -65.2722 -65.2717 -65.2715 -65.2713 -65.2711
   -65.2682 -65.2681 -65.2681 -65.2674 -65.2673 -65.2670 -65.2667 -65.2654
   -65.2624 -65.2621 -65.2617 -65.2616 -65.2615 -65.2609 -65.2608 -65.2607
   -65.2607 -65.2606 -65.2605 -65.2598 -65.2577 -65.2576 -65.2572 -65.2570
   -65.2567 -65.2562 -65.2546 -65.2544 -65.2536 -65.2534 -65.2534 -65.2531
   -65.2522 -65.2519 -65.2519 -65.2510 -65.2503 -65.2501 -65.2501 -65.2495
   -65.2495 -65.2491 -65.2491 -65.2462 -65.2461 -65.2460 -65.2459 -65.2447
   -65.2439 -65.2424 -65.2421 -65.2420 -65.2401 -65.2399 -65.2384 -65.2381
   -65.2314 -65.2310 -65.0990 -65.0917 -65.0917 -65.0907 -65.0903 -65.0811
   -65.0733 -65.0732 -65.0732 -65.0731 -65.0725 -65.0723 -65.0607 -65.0605
   -65.0596 -65.0594 -65.0546 -65.0545 -65.0524 -65.0520 -65.0512 -65.0488
   -65.0484 -65.0422 -65.0421 -65.0421 -65.0420 -65.0404 -65.0392 -65.0341
   -65.0338 -65.0337 -65.0310 -65.0309 -65.0220 -65.0219 -65.0063 -65.0050
   -65.0037 -65.0030 -65.0012 -65.0010 -64.9999 -64.9981 -64.9980 -64.9817
   -64.9816 -64.9792 -64.9792 -64.9769 -64.9769 -64.9769 -64.9768 -64.9767
   -12.5613  -9.8273  -9.8220  -6.2385  -6.2222  -4.2557  -3.2964  -3.2962
    -2.6978  -2.6976  -2.6611  -2.3239  -1.8034  -1.7901  -1.7640  -1.7637
    -1.7511  -1.6840  -1.2539  -1.2531  -0.7497  -0.7256  -0.5397  -0.5311
    -0.4071  -0.1511   0.0327   0.0337   0.0477   0.0529   0.0530   0.0532
     0.0532   0.1407   0.1790   0.2132   0.2210   0.2220   0.2258   0.2321
     0.2508   0.2510   0.2510   0.2511   0.2644   0.3068   0.3070   0.3071
     0.3073   0.4339   0.4715   0.4716   0.4719   0.4720   0.5112   0.5532
     0.6490   0.6490   0.6492   0.6492   0.6634   0.6858   0.6871   0.7030
     0.7030   0.7033   0.7034   0.8230   0.8231   0.8232   0.8233   0.8457
     0.8462   0.9343   0.9466   0.9467   0.9469   0.9470   0.9832   0.9833
     1.0277   1.0277   1.0985   1.0986   1.0988   1.0989   1.1595   1.1595
     1.1890   1.1894   1.2094   1.2096   1.2100   1.2102   1.2277   1.2277
     1.2627   1.2653   1.3153   1.3282   1.3287   1.3564   1.3569   1.3763
     1.3777   1.3857   1.3857   1.3861   1.3861   1.4425   1.4434   1.4474
     1.4475   1.4479   1.4479   1.4985   1.5010   1.5219   1.5221   1.5224
     1.5225   1.5318   1.5332   1.5332   1.5882   1.5939   1.6172   1.6189
     1.6194   1.6323   1.6364   1.6699   1.6703   1.6705   1.6707   1.6707
     1.6828   1.6859   1.7339   1.7342   1.7435   1.7440   1.7563   1.7565
     1.7909   1.7912   1.7913   1.7914   1.8138   1.8146   1.8156   1.8158
     1.8160   1.8441   1.8443   1.8451   1.8454   1.8766   1.8768   1.8974
     1.9069   1.9072   1.9678   1.9689   1.9755   1.9758   1.9770   1.9774
     1.9799   1.9799   1.9876   1.9893   1.9960   1.9961   2.0032   2.0208
     2.0229   2.0291   2.0298   2.0310   2.0313   2.0921   2.1026   2.1110
     2.1110   2.1323   2.1731   2.1926   2.1933   2.1935   2.1969   2.2004
     2.2009   2.2016   2.2073   2.2078   2.2232   2.2297   2.2341   2.2689
     2.2725   2.2727   2.2741   2.2925   2.2928   2.2930   2.2930   2.2957
     2.2983   2.3169   2.3188   2.3189   2.3268   2.3299   2.3329   2.4045
     2.4379   2.4491   2.4492   2.4769   2.4769   2.4775   2.4780   2.5091
     2.5098   2.5134   2.5260   2.5487   2.5496   2.5528   2.5529   2.5628
     2.5759   2.5858   2.5897   2.5898   2.5899   2.5901   2.6027   2.6233
     2.6234   2.6249   2.6270   2.6791   2.6792   2.6797   2.6800   2.6903
     2.6912   2.7161   2.7163   2.7456   2.7459   2.7500   2.7510   2.7772
     2.7772   2.8019   2.8047   2.8087   2.8256   2.8652   2.8669   2.8778
     2.8789   2.8869   2.8871   2.9019   2.9151   2.9152   2.9193   2.9196
     2.9211   2.9219   2.9376   2.9421   2.9421   2.9423   2.9426   2.9598
     2.9605   2.9607   2.9679   2.9720   2.9868   2.9894   3.0084   3.0086
     3.0089   3.0101   3.0164   3.0250   3.0459   3.0591   3.0592   3.0600
     3.0601   3.1653   3.1810   3.6973   3.7115   3.7142   3.7196   4.2265
     4.2708   4.2708   4.2711   4.2711   4.5408   4.5413   4.5418   4.5420
     4.8885   4.8939   4.9088   5.0128   5.0393   5.0964   5.0991   5.1003
     5.1021   5.3853   5.7244   5.9792   6.0022   6.0114   6.0706   6.0815
     6.0836   6.0883   6.1416   6.5425   6.5890   7.2459   7.3380   7.3926
     7.3930   7.4073   7.5975   7.9484   7.9820   8.1190   8.2522   8.3935
     8.5153   8.5178   8.5190   8.5354   8.8781   8.9061   8.9152   9.1634
     9.1666   9.1672   9.1754   9.2562   9.4628   9.5870   9.6794   9.7732
     9.7868   9.8267   9.8444   9.8628   9.8956  10.2559  10.3299  10.3469
    10.3835  10.4257  10.4630  10.4686  10.4869  10.8051  10.8677  11.0221
    11.1056  11.1853  11.2467  11.2585  11.3191  11.3884  11.3982  11.4167
    11.4725  11.5443  11.7020  12.0295  12.0985  12.1388  12.1822  12.2294
    12.2459  12.2920  12.4470  12.4996  12.7357  12.8030  12.8725  12.9461
    12.9574  13.0053  13.0261  13.0552  13.0730  13.1924  13.1941  13.2115
    13.2172  13.2692  13.3079  13.3184  13.4458  13.5969  13.6466  13.6467
    13.7066  13.7992

          k =-0.5000-0.2887 0.0000 ( 61408 PWs)   bands (ev):

  -107.8690-107.8682-107.8657-107.8652-107.8642-107.8631-107.8623-107.8618
  -107.8615-107.8614-107.8613-107.8611-107.8609-107.8601-107.8594-107.8593
  -107.8590-107.8578-107.8574-107.8557-107.8552-107.8551-107.8530-107.8530
  -107.8528-107.8521-107.8520-107.8486-107.8481-107.8460-107.8459-107.8441
  -107.8436-107.8436-107.8435-107.8427-107.6307-107.6294-107.6278-107.6271
  -107.6253-107.6251-107.6242-107.6225-107.6223-107.6095-107.6094-107.6069
  -107.6069-107.6045-107.6044-107.6044-107.6043-107.6043 -65.3199 -65.3194
   -65.3171 -65.3157 -65.3118 -65.3117 -65.3106 -65.3105 -65.3099 -65.3097
   -65.3089 -65.3087 -65.3086 -65.3082 -65.3046 -65.2981 -65.2977 -65.2977
   -65.2972 -65.2971 -65.2968 -65.2967 -65.2960 -65.2958 -65.2934 -65.2934
   -65.2930 -65.2928 -65.2859 -65.2858 -65.2848 -65.2846 -65.2843 -65.2839
   -65.2827 -65.2790 -65.2790 -65.2762 -65.2753 -65.2753 -65.2752 -65.2750
   -65.2748 -65.2740 -65.2723 -65.2722 -65.2717 -65.2715 -65.2713 -65.2711
   -65.2682 -65.2681 -65.2681 -65.2674 -65.2673 -65.2670 -65.2667 -65.2654
   -65.2624 -65.2621 -65.2617 -65.2616 -65.2615 -65.2609 -65.2608 -65.2607
   -65.2607 -65.2606 -65.2605 -65.2598 -65.2577 -65.2576 -65.2572 -65.2570
   -65.2567 -65.2562 -65.2546 -65.2544 -65.2536 -65.2534 -65.2534 -65.2531
   -65.2522 -65.2519 -65.2519 -65.2510 -65.2503 -65.2501 -65.2501 -65.2495
   -65.2495 -65.2491 -65.2491 -65.2462 -65.2461 -65.2460 -65.2459 -65.2447
   -65.2439 -65.2424 -65.2421 -65.2420 -65.2401 -65.2399 -65.2384 -65.2381
   -65.2314 -65.2310 -65.0990 -65.0917 -65.0917 -65.0907 -65.0903 -65.0811
   -65.0733 -65.0732 -65.0732 -65.0731 -65.0725 -65.0723 -65.0607 -65.0605
   -65.0596 -65.0594 -65.0546 -65.0545 -65.0524 -65.0520 -65.0512 -65.0488
   -65.0484 -65.0422 -65.0421 -65.0421 -65.0420 -65.0404 -65.0392 -65.0341
   -65.0338 -65.0337 -65.0310 -65.0309 -65.0220 -65.0219 -65.0063 -65.0050
   -65.0037 -65.0030 -65.0012 -65.0010 -64.9999 -64.9981 -64.9980 -64.9817
   -64.9816 -64.9792 -64.9792 -64.9769 -64.9769 -64.9769 -64.9768 -64.9767
   -12.5613  -9.8274  -9.8219  -6.2384  -6.2223  -4.2557  -3.2964  -3.2962
    -2.6978  -2.6976  -2.6611  -2.3240  -1.8035  -1.7901  -1.7640  -1.7637
    -1.7512  -1.6839  -1.2539  -1.2531  -0.7497  -0.7256  -0.5397  -0.5311
    -0.4071  -0.1511   0.0327   0.0337   0.0477   0.0529   0.0530   0.0532
     0.0532   0.1407   0.1789   0.2132   0.2210   0.2220   0.2258   0.2321
     0.2508   0.2510   0.2510   0.2511   0.2645   0.3068   0.3070   0.3071
     0.3073   0.4339   0.4715   0.4716   0.4719   0.4720   0.5112   0.5532
     0.6490   0.6490   0.6492   0.6492   0.6634   0.6858   0.6871   0.7030
     0.7030   0.7033   0.7034   0.8230   0.8231   0.8232   0.8233   0.8457
     0.8462   0.9343   0.9466   0.9467   0.9469   0.9470   0.9832   0.9833
     1.0277   1.0277   1.0985   1.0986   1.0988   1.0989   1.1595   1.1595
     1.1890   1.1894   1.2094   1.2096   1.2100   1.2102   1.2277   1.2277
     1.2627   1.2653   1.3153   1.3282   1.3287   1.3564   1.3569   1.3763
     1.3777   1.3857   1.3857   1.3861   1.3861   1.4425   1.4434   1.4474
     1.4475   1.4479   1.4479   1.4985   1.5010   1.5219   1.5221   1.5224
     1.5225   1.5318   1.5332   1.5332   1.5882   1.5939   1.6172   1.6189
     1.6194   1.6323   1.6364   1.6699   1.6703   1.6705   1.6707   1.6707
     1.6828   1.6859   1.7339   1.7342   1.7435   1.7440   1.7563   1.7565
     1.7909   1.7912   1.7913   1.7914   1.8138   1.8146   1.8156   1.8158
     1.8160   1.8441   1.8443   1.8451   1.8454   1.8766   1.8768   1.8974
     1.9069   1.9072   1.9678   1.9689   1.9755   1.9758   1.9770   1.9774
     1.9799   1.9799   1.9876   1.9893   1.9960   1.9961   2.0032   2.0208
     2.0229   2.0291   2.0298   2.0310   2.0313   2.0921   2.1026   2.1110
     2.1110   2.1323   2.1732   2.1926   2.1933   2.1935   2.1969   2.2004
     2.2009   2.2016   2.2073   2.2078   2.2232   2.2297   2.2341   2.2689
     2.2725   2.2727   2.2741   2.2925   2.2928   2.2930   2.2930   2.2957
     2.2983   2.3169   2.3188   2.3189   2.3268   2.3299   2.3329   2.4045
     2.4379   2.4491   2.4492   2.4769   2.4769   2.4775   2.4780   2.5091
     2.5098   2.5134   2.5260   2.5487   2.5496   2.5528   2.5529   2.5628
     2.5759   2.5858   2.5897   2.5898   2.5899   2.5901   2.6027   2.6233
     2.6234   2.6249   2.6270   2.6791   2.6792   2.6797   2.6800   2.6903
     2.6912   2.7161   2.7163   2.7456   2.7459   2.7500   2.7510   2.7772
     2.7772   2.8019   2.8047   2.8087   2.8256   2.8652   2.8669   2.8778
     2.8789   2.8869   2.8871   2.9019   2.9151   2.9152   2.9193   2.9196
     2.9211   2.9219   2.9376   2.9421   2.9421   2.9423   2.9426   2.9598
     2.9605   2.9607   2.9679   2.9720   2.9868   2.9894   3.0084   3.0086
     3.0089   3.0101   3.0164   3.0250   3.0459   3.0591   3.0592   3.0600
     3.0601   3.1653   3.1810   3.6973   3.7115   3.7142   3.7196   4.2265
     4.2708   4.2708   4.2711   4.2711   4.5408   4.5413   4.5418   4.5420
     4.8885   4.8939   4.9088   5.0128   5.0393   5.0964   5.0991   5.1003
     5.1021   5.3853   5.7244   5.9792   6.0022   6.0114   6.0706   6.0815
     6.0836   6.0883   6.1416   6.5425   6.5890   7.2459   7.3380   7.3926
     7.3931   7.4073   7.5975   7.9484   7.9820   8.1190   8.2522   8.3935
     8.5153   8.5178   8.5190   8.5354   8.8781   8.9061   8.9152   9.1634
     9.1666   9.1672   9.1754   9.2563   9.4628   9.5870   9.6794   9.7732
     9.7868   9.8267   9.8444   9.8628   9.8956  10.2559  10.3299  10.3469
    10.3835  10.4257  10.4630  10.4686  10.4869  10.8051  10.8677  11.0220
    11.1056  11.1853  11.2467  11.2584  11.3191  11.3884  11.3982  11.4167
    11.4725  11.5443  11.7020  12.0295  12.0985  12.1388  12.1822  12.2293
    12.2459  12.2920  12.4470  12.4996  12.7356  12.8031  12.8725  12.9461
    12.9574  13.0053  13.0261  13.0552  13.0730  13.1924  13.1942  13.2115
    13.2172  13.2692  13.3079  13.3184  13.4458  13.5970  13.6466  13.6467
    13.7066  13.7992

          k =-0.2500-0.7217 0.0000 ( 61343 PWs)   bands (ev):

  -107.8692-107.8676-107.8668-107.8648-107.8632-107.8631-107.8628-107.8621
  -107.8619-107.8614-107.8612-107.8608-107.8607-107.8599-107.8597-107.8592
  -107.8590-107.8580-107.8568-107.8564-107.8557-107.8540-107.8535-107.8529
  -107.8528-107.8521-107.8519-107.8487-107.8475-107.8470-107.8449-107.8444
  -107.8439-107.8436-107.8434-107.8427-107.6307-107.6291-107.6284-107.6268
  -107.6253-107.6251-107.6242-107.6225-107.6223-107.6099-107.6084-107.6084
  -107.6055-107.6054-107.6044-107.6044-107.6043-107.6040 -65.3209 -65.3165
   -65.3159 -65.3151 -65.3148 -65.3138 -65.3135 -65.3122 -65.3105 -65.3089
   -65.3086 -65.3076 -65.3048 -65.3030 -65.3025 -65.3024 -65.3022 -65.2997
   -65.2968 -65.2961 -65.2960 -65.2959 -65.2956 -65.2941 -65.2939 -65.2930
   -65.2922 -65.2920 -65.2893 -65.2889 -65.2841 -65.2837 -65.2833 -65.2825
   -65.2801 -65.2798 -65.2791 -65.2789 -65.2786 -65.2758 -65.2752 -65.2750
   -65.2740 -65.2733 -65.2729 -65.2727 -65.2718 -65.2691 -65.2688 -65.2687
   -65.2685 -65.2684 -65.2682 -65.2670 -65.2668 -65.2664 -65.2661 -65.2648
   -65.2646 -65.2633 -65.2631 -65.2629 -65.2626 -65.2622 -65.2605 -65.2594
   -65.2592 -65.2591 -65.2589 -65.2585 -65.2580 -65.2576 -65.2574 -65.2572
   -65.2570 -65.2558 -65.2556 -65.2549 -65.2544 -65.2541 -65.2537 -65.2524
   -65.2521 -65.2514 -65.2513 -65.2513 -65.2511 -65.2510 -65.2509 -65.2507
   -65.2489 -65.2486 -65.2482 -65.2464 -65.2462 -65.2454 -65.2452 -65.2452
   -65.2444 -65.2442 -65.2421 -65.2411 -65.2410 -65.2401 -65.2365 -65.2346
   -65.2345 -65.2308 -65.0970 -65.0965 -65.0939 -65.0873 -65.0837 -65.0829
   -65.0788 -65.0788 -65.0760 -65.0694 -65.0655 -65.0654 -65.0640 -65.0622
   -65.0609 -65.0607 -65.0557 -65.0550 -65.0543 -65.0538 -65.0477 -65.0459
   -65.0439 -65.0431 -65.0430 -65.0430 -65.0430 -65.0390 -65.0373 -65.0372
   -65.0364 -65.0364 -65.0298 -65.0253 -65.0252 -65.0212 -65.0064 -65.0047
   -65.0041 -65.0027 -65.0012 -65.0011 -64.9999 -64.9982 -64.9979 -64.9820
   -64.9807 -64.9806 -64.9779 -64.9778 -64.9769 -64.9769 -64.9767 -64.9765
   -12.5613  -9.8261  -9.8232  -6.2342  -6.2265  -4.2559  -3.5019  -2.8965
    -2.6957  -2.6956  -2.6610  -2.3237  -2.1221  -2.1217  -1.9754  -1.7460
    -1.7058  -1.2656  -1.2623  -0.8965  -0.6849  -0.6848  -0.4557  -0.3344
    -0.3336  -0.2911  -0.2646  -0.0940  -0.0939  -0.0843   0.0804   0.0813
     0.1006   0.1008   0.1170   0.1667   0.1788   0.1789   0.1959   0.2045
     0.2448   0.2948   0.2983   0.3016   0.3016   0.3747   0.3788   0.4395
     0.4400   0.4517   0.4626   0.4902   0.4903   0.4931   0.5116   0.5125
     0.5794   0.5797   0.6053   0.6070   0.6372   0.6373   0.6625   0.6716
     0.6718   0.7397   0.7398   0.7667   0.7888   0.7997   0.8000   0.8752
     0.8754   0.9265   0.9460   0.9462   0.9750   0.9751   1.0326   1.0418
     1.0421   1.0574   1.0575   1.0716   1.1101   1.1375   1.1376   1.1800
     1.1803   1.2072   1.2123   1.2129   1.2143   1.2307   1.2308   1.2900
     1.2903   1.2933   1.2934   1.2967   1.3090   1.3261   1.3272   1.3402
     1.3407   1.3681   1.3693   1.3919   1.3933   1.3942   1.4132   1.4378
     1.4786   1.4866   1.4868   1.4870   1.4880   1.5169   1.5358   1.5395
     1.5405   1.5775   1.5777   1.5785   1.5814   1.5876   1.6107   1.6319
     1.6319   1.6487   1.6488   1.6746   1.6764   1.6860   1.6861   1.6978
     1.6985   1.7132   1.7134   1.7309   1.7311   1.7460   1.7544   1.7781
     1.7880   1.7918   1.7972   1.8145   1.8166   1.8171   1.8242   1.8323
     1.8331   1.8427   1.8428   1.8567   1.8589   1.8615   1.8620   1.8644
     1.8842   1.8899   1.9127   1.9278   1.9303   1.9373   1.9412   1.9421
     1.9495   1.9502   1.9503   1.9536   1.9586   1.9628   1.9649   1.9655
     2.0241   2.0253   2.0856   2.0861   2.0959   2.0990   2.1001   2.1038
     2.1280   2.1282   2.1366   2.1379   2.1522   2.1719   2.1797   2.1817
     2.2030   2.2073   2.2312   2.2457   2.2515   2.2642   2.2650   2.2679
     2.2684   2.2703   2.2730   2.2775   2.2796   2.2856   2.3067   2.3179
     2.3517   2.3543   2.3556   2.3592   2.3656   2.3686   2.3737   2.3983
     2.4032   2.4090   2.4223   2.4464   2.4479   2.4656   2.4719   2.4728
     2.4834   2.4861   2.5169   2.5252   2.5306   2.5312   2.5576   2.5582
     2.5799   2.5861   2.5868   2.6050   2.6062   2.6285   2.6291   2.6301
     2.6335   2.6365   2.6493   2.6494   2.6541   2.6605   2.6641   2.6816
     2.7184   2.7247   2.7250   2.7282   2.7756   2.7759   2.7864   2.7884
     2.8186   2.8312   2.8318   2.8375   2.8379   2.8520   2.8550   2.8820
     2.8828   2.8829   2.8924   2.8926   2.9037   2.9057   2.9070   2.9073
     2.9093   2.9164   2.9166   2.9175   2.9200   2.9344   2.9351   2.9499
     2.9505   2.9565   2.9610   2.9612   2.9726   2.9886   2.9933   2.9995
     2.9999   3.0170   3.0480   3.0482   3.0592   3.0804   3.0809   3.2353
     3.2403   3.3484   3.3485   3.4502   3.4506   3.5542   3.7748   3.7774
     4.1545   4.1669   4.2590   4.2593   4.2725   4.5349   4.6442   4.6508
     4.6670   4.6671   4.7941   5.1125   5.1401   5.1411   5.5850   5.6248
     5.6454   5.6939   5.8774   5.8958   5.8976   6.0275   6.0345   6.1187
     6.1918   6.5637   6.6414   6.6436   6.8163   6.8846   6.9631   7.0206
     7.0214   7.3047   7.3718   7.3796   7.5692   7.7697   7.8484   7.9335
     8.4392   8.4433   8.4683   8.5467   8.7206   9.0370   9.1008   9.1310
     9.2045   9.2936   9.3226   9.4455   9.4553   9.6235   9.6495   9.6641
     9.7807   9.8428  10.0102  10.1154  10.1463  10.3318  10.3948  10.4605
    10.4979  10.5763  10.6602  10.7764  10.8139  11.0394  11.1251  11.1517
    11.2462  11.2714  11.4180  11.4465  11.4518  11.5881  11.6203  11.6770
    11.6874  11.7763  11.8211  11.8402  11.9857  12.0801  12.1261  12.1676
    12.2649  12.3423  12.3719  12.4017  12.4635  12.4860  12.5503  12.5959
    12.6940  12.7104  12.7987  12.8978  12.9386  12.9604  13.1425  13.2438
    13.2623  13.2839  13.3639  13.3950  13.4632  13.4940  13.5285  13.6231
    13.6481  13.6692

          k =-0.5000-0.5774 0.0000 ( 61343 PWs)   bands (ev):

  -107.8692-107.8676-107.8668-107.8648-107.8632-107.8631-107.8628-107.8621
  -107.8619-107.8614-107.8612-107.8608-107.8607-107.8599-107.8597-107.8592
  -107.8590-107.8580-107.8568-107.8563-107.8557-107.8540-107.8535-107.8530
  -107.8528-107.8521-107.8519-107.8487-107.8475-107.8470-107.8449-107.8444
  -107.8439-107.8436-107.8434-107.8427-107.6307-107.6291-107.6283-107.6268
  -107.6253-107.6251-107.6242-107.6225-107.6223-107.6099-107.6084-107.6084
  -107.6055-107.6054-107.6044-107.6044-107.6043-107.6040 -65.3209 -65.3164
   -65.3159 -65.3151 -65.3148 -65.3138 -65.3135 -65.3122 -65.3105 -65.3089
   -65.3086 -65.3076 -65.3048 -65.3030 -65.3025 -65.3024 -65.3022 -65.2997
   -65.2968 -65.2961 -65.2960 -65.2959 -65.2956 -65.2941 -65.2939 -65.2930
   -65.2922 -65.2920 -65.2893 -65.2889 -65.2841 -65.2837 -65.2833 -65.2825
   -65.2801 -65.2798 -65.2791 -65.2789 -65.2786 -65.2758 -65.2752 -65.2750
   -65.2740 -65.2733 -65.2729 -65.2727 -65.2718 -65.2691 -65.2688 -65.2687
   -65.2685 -65.2684 -65.2682 -65.2670 -65.2668 -65.2664 -65.2661 -65.2648
   -65.2646 -65.2633 -65.2631 -65.2629 -65.2626 -65.2622 -65.2605 -65.2594
   -65.2592 -65.2591 -65.2589 -65.2585 -65.2580 -65.2576 -65.2574 -65.2572
   -65.2570 -65.2558 -65.2556 -65.2549 -65.2544 -65.2541 -65.2537 -65.2524
   -65.2521 -65.2514 -65.2513 -65.2513 -65.2511 -65.2510 -65.2509 -65.2507
   -65.2489 -65.2486 -65.2482 -65.2464 -65.2462 -65.2454 -65.2452 -65.2452
   -65.2444 -65.2442 -65.2421 -65.2411 -65.2410 -65.2401 -65.2365 -65.2346
   -65.2345 -65.2308 -65.0970 -65.0965 -65.0939 -65.0873 -65.0837 -65.0829
   -65.0788 -65.0788 -65.0760 -65.0694 -65.0655 -65.0654 -65.0640 -65.0622
   -65.0609 -65.0607 -65.0557 -65.0550 -65.0543 -65.0538 -65.0477 -65.0459
   -65.0439 -65.0431 -65.0430 -65.0430 -65.0430 -65.0390 -65.0373 -65.0372
   -65.0364 -65.0364 -65.0298 -65.0253 -65.0252 -65.0212 -65.0064 -65.0047
   -65.0041 -65.0027 -65.0012 -65.0010 -64.9999 -64.9982 -64.9979 -64.9820
   -64.9807 -64.9806 -64.9779 -64.9778 -64.9769 -64.9769 -64.9767 -64.9765
   -12.5613  -9.8259  -9.8234  -6.2346  -6.2261  -4.2559  -3.5019  -2.8965
    -2.6957  -2.6956  -2.6610  -2.3237  -2.1221  -2.1217  -1.9754  -1.7460
    -1.7058  -1.2656  -1.2623  -0.8965  -0.6849  -0.6848  -0.4557  -0.3344
    -0.3336  -0.2911  -0.2646  -0.0940  -0.0939  -0.0843   0.0804   0.0813
     0.1006   0.1008   0.1170   0.1667   0.1788   0.1789   0.1959   0.2046
     0.2447   0.2948   0.2983   0.3016   0.3016   0.3747   0.3788   0.4395
     0.4400   0.4517   0.4626   0.4902   0.4903   0.4931   0.5116   0.5125
     0.5794   0.5797   0.6053   0.6070   0.6372   0.6373   0.6625   0.6716
     0.6718   0.7397   0.7398   0.7667   0.7888   0.7997   0.8000   0.8752
     0.8754   0.9265   0.9460   0.9462   0.9750   0.9751   1.0326   1.0418
     1.0421   1.0574   1.0575   1.0716   1.1101   1.1375   1.1376   1.1800
     1.1803   1.2072   1.2123   1.2129   1.2143   1.2307   1.2308   1.2900
     1.2903   1.2933   1.2934   1.2967   1.3090   1.3261   1.3272   1.3402
     1.3407   1.3681   1.3693   1.3919   1.3933   1.3942   1.4132   1.4378
     1.4786   1.4866   1.4868   1.4870   1.4880   1.5169   1.5358   1.5395
     1.5405   1.5775   1.5777   1.5785   1.5814   1.5876   1.6107   1.6319
     1.6319   1.6487   1.6488   1.6746   1.6764   1.6860   1.6861   1.6978
     1.6985   1.7132   1.7135   1.7309   1.7311   1.7460   1.7544   1.7781
     1.7880   1.7918   1.7972   1.8145   1.8166   1.8171   1.8242   1.8323
     1.8331   1.8427   1.8428   1.8567   1.8589   1.8615   1.8620   1.8644
     1.8842   1.8899   1.9127   1.9278   1.9303   1.9373   1.9412   1.9421
     1.9495   1.9502   1.9503   1.9536   1.9586   1.9628   1.9649   1.9655
     2.0241   2.0253   2.0856   2.0861   2.0959   2.0990   2.1001   2.1038
     2.1280   2.1282   2.1366   2.1379   2.1522   2.1719   2.1797   2.1817
     2.2030   2.2073   2.2312   2.2457   2.2515   2.2642   2.2650   2.2679
     2.2684   2.2703   2.2730   2.2775   2.2796   2.2856   2.3067   2.3179
     2.3517   2.3543   2.3556   2.3592   2.3656   2.3686   2.3737   2.3983
     2.4032   2.4090   2.4223   2.4464   2.4479   2.4656   2.4719   2.4728
     2.4834   2.4861   2.5169   2.5252   2.5306   2.5312   2.5576   2.5582
     2.5799   2.5861   2.5868   2.6050   2.6063   2.6285   2.6291   2.6301
     2.6335   2.6365   2.6493   2.6494   2.6541   2.6605   2.6641   2.6816
     2.7184   2.7247   2.7250   2.7282   2.7756   2.7759   2.7864   2.7884
     2.8186   2.8312   2.8318   2.8375   2.8379   2.8520   2.8550   2.8820
     2.8828   2.8829   2.8924   2.8926   2.9037   2.9057   2.9070   2.9073
     2.9093   2.9164   2.9166   2.9175   2.9200   2.9344   2.9351   2.9499
     2.9505   2.9565   2.9610   2.9612   2.9726   2.9886   2.9933   2.9995
     2.9999   3.0170   3.0480   3.0482   3.0592   3.0804   3.0809   3.2353
     3.2403   3.3484   3.3485   3.4502   3.4506   3.5542   3.7748   3.7774
     4.1545   4.1669   4.2590   4.2593   4.2725   4.5349   4.6442   4.6508
     4.6670   4.6671   4.7941   5.1125   5.1401   5.1411   5.5850   5.6247
     5.6454   5.6939   5.8774   5.8958   5.8976   6.0275   6.0345   6.1187
     6.1918   6.5637   6.6414   6.6436   6.8163   6.8846   6.9631   7.0206
     7.0214   7.3047   7.3719   7.3795   7.5692   7.7696   7.8484   7.9335
     8.4392   8.4433   8.4683   8.5467   8.7206   9.0370   9.1008   9.1310
     9.2045   9.2936   9.3226   9.4455   9.4553   9.6235   9.6495   9.6641
     9.7807   9.8428  10.0102  10.1155  10.1463  10.3318  10.3948  10.4605
    10.4979  10.5763  10.6602  10.7764  10.8139  11.0394  11.1251  11.1517
    11.2462  11.2714  11.4180  11.4465  11.4518  11.5881  11.6203  11.6770
    11.6874  11.7764  11.8211  11.8403  11.9857  12.0801  12.1262  12.1676
    12.2650  12.3423  12.3719  12.4017  12.4635  12.4861  12.5503  12.5958
    12.6940  12.7104  12.7987  12.8978  12.9386  12.9604  13.1425  13.2439
    13.2621  13.2839  13.3639  13.3950  13.4632  13.4940  13.5287  13.6231
    13.6481  13.6692

     the Fermi energy is     4.5776 ev

!    total energy              =  -21903.76895824 Ry
     Harris-Foulkes estimate   =  -21903.76895823 Ry
     estimated scf accuracy    <          3.6E-09 Ry

     The total energy is the sum of the following terms:

     one-electron contribution = -206504.19157744 Ry
     hartree contribution      =  103453.64689057 Ry
     xc contribution           =   -2143.17397269 Ry
     ewald contribution        =   83290.00227520 Ry
     smearing contrib. (-TS)   =      -0.05257388 Ry

     convergence has been achieved in  36 iterations
 
     init_run     :     91.97s CPU     94.74s WALL (       1 calls)
     electrons    :  18559.93s CPU  18861.65s WALL (       1 calls)

     Called by init_run:
     wfcinit      :     77.75s CPU     79.66s WALL (       1 calls)
     potinit      :      6.99s CPU      7.26s WALL (       1 calls)
     hinit0       :      3.24s CPU      3.30s WALL (       1 calls)

     Called by electrons:
     c_bands      :  17390.05s CPU  17629.04s WALL (      36 calls)
     sum_band     :    889.31s CPU    923.04s WALL (      36 calls)
     v_of_rho     :    230.38s CPU    239.95s WALL (      37 calls)
     newd         :     46.41s CPU     66.21s WALL (      37 calls)
     mix_rho      :      6.60s CPU      6.77s WALL (      36 calls)

     Called by c_bands:
     init_us_2    :     33.21s CPU     33.90s WALL (     730 calls)
     cegterg      :  17246.76s CPU  17480.84s WALL (     361 calls)

     Called by sum_band:
     sum_band:bec :      2.99s CPU      3.01s WALL (     360 calls)
     addusdens    :     52.11s CPU     73.68s WALL (      36 calls)

     Called by *egterg:
     h_psi        :   4102.78s CPU   4174.25s WALL (    1873 calls)
     s_psi        :    617.10s CPU    617.91s WALL (    1873 calls)
     g_psi        :     13.38s CPU     13.46s WALL (    1502 calls)
     cdiaghg      :   9667.25s CPU   9740.60s WALL (    1863 calls)

     Called by h_psi:
     h_psi:pot    :   4089.48s CPU   4144.03s WALL (    1873 calls)
     h_psi:calbec :    642.68s CPU    645.76s WALL (    1873 calls)
     vloc_psi     :   2827.66s CPU   2878.06s WALL (    1873 calls)
     add_vuspsi   :    619.10s CPU    620.19s WALL (    1873 calls)

     General routines
     calbec       :    873.85s CPU    877.33s WALL (    2233 calls)
     fft          :    177.00s CPU    179.20s WALL (    2330 calls)
     ffts         :      0.51s CPU      0.52s WALL (      73 calls)
     fftw         :   3041.31s CPU   3098.93s WALL ( 1448694 calls)
     interpolate  :      2.88s CPU      2.91s WALL (      37 calls)
 
     Parallel routines
     fft_scatt_xy :    282.78s CPU    284.37s WALL ( 1451097 calls)
     fft_scatt_yz :   1862.28s CPU   1915.37s WALL ( 1451097 calls)
 
     PWSCF        :     5h10m CPU       10h 5m WALL

      15h
 
   This run was terminated on:  22:13:26  18Nov2019            

=------------------------------------------------------------------------------=
   JOB DONE.
=------------------------------------------------------------------------------=
