
     Program PWSCF v.6.3MaX starts on 21Nov2019 at 10:34:25 

     This program is part of the open-source Quantum ESPRESSO suite
     for quantum simulation of materials; please cite
         "P. Giannozzi et al., J. Phys.:Condens. Matter 21 395502 (2009);
         "P. Giannozzi et al., J. Phys.:Condens. Matter 29 465901 (2017);
          URL http://www.quantum-espresso.org", 
     in publications or presentations arising from this work. More details at
     http://www.quantum-espresso.org/quote

     Parallel version (MPI), running on    16 processors

     MPI processes distributed on     2 nodes
     R & G space division:  proc/nbgrp/npool/nimage =      16
     Waiting for input...
     Reading input from standard input

     Current dimensions of program PWSCF are:
     Max number of different atomic species (ntypx) = 10
     Max number of k-points (npk) =  40000
     Max angular momentum in pseudopotentials (lmaxx) =  3
     Message from routine iosys:
     minimal I/O required, wf_collect reset to FALSE

     IMPORTANT: XC functional enforced from input :
     Exchange-correlation      = VDW-DF ( 1  4  4  0 1 0)
     Any further DFT definition will be discarded
     Please, verify this is what you really want


     Subspace diagonalization in iterative solution of the eigenvalue problem:
     one sub-group per band group will be used
     scalapack distributed-memory algorithm (size of sub-group:  2*  2 procs)

 
     Parallelization info
     --------------------
     sticks:   dense  smooth     PW     G-vecs:    dense   smooth      PW
     Min         565     189     51               159513    30701    4383
     Max         566     190     52               159526    30710    4400
     Sum        9055    3037    823              2552337   491295   70261
 


     bravais-lattice index     =            0
     lattice parameter (alat)  =      14.8058  a.u.
     unit-cell volume          =   10282.4791 (a.u.)^3
     number of atoms/cell      =           66
     number of atomic types    =            3
     number of electrons       =      1056.00
     number of Kohn-Sham states=          634
     kinetic-energy cutoff     =      50.0000  Ry
     charge density cutoff     =     600.0000  Ry
     convergence threshold     =      1.0E-08
     mixing beta               =       0.3000
     number of iterations used =            8  plain     mixing
     Exchange-correlation      = VDW-DF ( 1  4  4  0 1 0)

     celldm(1)=  14.805786  celldm(2)=   0.000000  celldm(3)=   0.000000
     celldm(4)=   0.000000  celldm(5)=   0.000000  celldm(6)=   0.000000

     crystal axes: (cart. coord. in units of alat)
               a(1) = (   1.000000   0.000000   0.000000 )  
               a(2) = (   0.500000   0.866025   0.000000 )  
               a(3) = (   0.000000   0.000000   3.658245 )  

     reciprocal axes: (cart. coord. in units 2 pi/alat)
               b(1) = (  1.000000 -0.577350  0.000000 )  
               b(2) = (  0.000000  1.154701  0.000000 )  
               b(3) = (  0.000000  0.000000  0.273355 )  


     PseudoPot. # 1 for Cu read from file:
     /deac/thonhauserGrp/chakrad/calculations/atomandmolecule-qe6.2.1-i2012-C6modif/all_pbe_UPF_v1.5/cu_pbe_v1.2.uspp.F.UPF
     MD5 check sum: 6e991ff952a84172a2a52a1c1e996048
     Pseudo is Ultrasoft + core correction, Zval = 19.0
     Generated by new atomic code, or converted to UPF format
     Using radial grid of  867 points,  6 beta functions with: 
                l(1) =   0
                l(2) =   0
                l(3) =   1
                l(4) =   1
                l(5) =   2
                l(6) =   2
     Q(r) pseudized with  8 coefficients,  rinner =    1.150   1.150   1.150
                                                       1.150   1.150

     PseudoPot. # 2 for C  read from file:
     /deac/thonhauserGrp/chakrad/calculations/atomandmolecule-qe6.2.1-i2012-C6modif/all_pbe_UPF_v1.5/c_pbe_v1.2.uspp.F.UPF
     MD5 check sum: d1aef80898a10debaa0f26306b886e00
     Pseudo is Ultrasoft + core correction, Zval =  4.0
     Generated by new atomic code, or converted to UPF format
     Using radial grid of  721 points,  4 beta functions with: 
                l(1) =   0
                l(2) =   0
                l(3) =   1
                l(4) =   1
     Q(r) pseudized with  8 coefficients,  rinner =    1.100   1.100   1.100


     PseudoPot. # 3 for H  read from file:
     /deac/thonhauserGrp/chakrad/calculations/atomandmolecule-qe6.2.1-i2012-C6modif/all_pbe_UPF_v1.5/h_pbe_v1.4.uspp.F.UPF
     MD5 check sum: 761ae9a214b05c3daf00ab9f6b793d6f
     Pseudo is Ultrasoft, Zval =  1.0
     Generated by new atomic code, or converted to UPF format
     Using radial grid of  615 points,  2 beta functions with: 
                l(1) =   0
                l(2) =   0
     Q(r) pseudized with  8 coefficients,  rinner =    0.700

     vdW kernel table read from file vdW_kernel_table
     MD5 check sum: cc9485f6209b1096fbef62427c856dab

     atomic species   valence    mass     pseudopotential
        Cu            19.00     1.00000     Cu( 1.00)
        C              4.00     1.00000     C ( 1.00)
        H              1.00     1.00000     H ( 1.00)

     No symmetry found



   Cartesian axes

     site n.     atom                  positions (alat units)
         1           Cu  tau(   1) = (   0.1666667   0.0962250   0.2552686  )
         2           Cu  tau(   2) = (   0.5000000   0.0962250   0.2552686  )
         3           Cu  tau(   3) = (   0.8333333   0.0962250   0.2552686  )
         4           Cu  tau(   4) = (   0.3333333   0.3849002   0.2552686  )
         5           Cu  tau(   5) = (   0.6666667   0.3849002   0.2552686  )
         6           Cu  tau(   6) = (   1.0000000   0.3849002   0.2552686  )
         7           Cu  tau(   7) = (   0.5000000   0.6735753   0.2552686  )
         8           Cu  tau(   8) = (   0.8333333   0.6735753   0.2552686  )
         9           Cu  tau(   9) = (   1.1666667   0.6735753   0.2552686  )
        10           Cu  tau(  10) = (   0.0000000   0.1924501   0.5274341  )
        11           Cu  tau(  11) = (   0.3333333   0.1924501   0.5274341  )
        12           Cu  tau(  12) = (   0.6666667   0.1924501   0.5274341  )
        13           Cu  tau(  13) = (   0.1666667   0.4811252   0.5274341  )
        14           Cu  tau(  14) = (   0.5000000   0.4811252   0.5274341  )
        15           Cu  tau(  15) = (   0.8333333   0.4811252   0.5274341  )
        16           Cu  tau(  16) = (   0.3333333   0.7698004   0.5274341  )
        17           Cu  tau(  17) = (   0.6666667   0.7698004   0.5274341  )
        18           Cu  tau(  18) = (   1.0000000   0.7698004   0.5274341  )
        19           Cu  tau(  19) = (   0.0000000   0.0000000   0.7995997  )
        20           Cu  tau(  20) = (   0.3333333   0.0000000   0.7995997  )
        21           Cu  tau(  21) = (   0.6666667   0.0000000   0.7995997  )
        22           Cu  tau(  22) = (   0.1666667   0.2886751   0.7995997  )
        23           Cu  tau(  23) = (   0.5000000   0.2886751   0.7995997  )
        24           Cu  tau(  24) = (   0.8333333   0.2886751   0.7995997  )
        25           Cu  tau(  25) = (   0.3333333   0.5773503   0.7995997  )
        26           Cu  tau(  26) = (   0.6666667   0.5773503   0.7995997  )
        27           Cu  tau(  27) = (   1.0000000   0.5773503   0.7995997  )
        28           Cu  tau(  28) = (   0.1666659   0.0962246   1.0691130  )
        29           Cu  tau(  29) = (   0.5000000   0.0962241   1.0691104  )
        30           Cu  tau(  30) = (   0.8333341   0.0962246   1.0691130  )
        31           Cu  tau(  31) = (   0.3333325   0.3849006   1.0691104  )
        32           Cu  tau(  32) = (   0.6666675   0.3849006   1.0691104  )
        33           Cu  tau(  33) = (   1.0000000   0.3849003   1.0691143  )
        34           Cu  tau(  34) = (   0.5000000   0.6735762   1.0691130  )
        35           Cu  tau(  35) = (   0.8333334   0.6735753   1.0691143  )
        36           Cu  tau(  36) = (   1.1666666   0.6735753   1.0691143  )
        37           Cu  tau(  37) = (   0.0000000   0.1924486   1.3387540  )
        38           Cu  tau(  38) = (   0.3333330   0.1924499   1.3387465  )
        39           Cu  tau(  39) = (   0.6666670   0.1924499   1.3387465  )
        40           Cu  tau(  40) = (   0.1666676   0.4811247   1.3387504  )
        41           Cu  tau(  41) = (   0.5000000   0.4811256   1.3387465  )
        42           Cu  tau(  42) = (   0.8333324   0.4811247   1.3387504  )
        43           Cu  tau(  43) = (   0.3333346   0.7698011   1.3387540  )
        44           Cu  tau(  44) = (   0.6666654   0.7698011   1.3387540  )
        45           Cu  tau(  45) = (   1.0000000   0.7698014   1.3387504  )
        46           Cu  tau(  46) = (   0.0000000   0.0000000   1.6083750  )
        47           Cu  tau(  47) = (   0.3333333   0.0000005   1.6083624  )
        48           Cu  tau(  48) = (   0.6666667   0.0000005   1.6083624  )
        49           Cu  tau(  49) = (   0.1666671   0.2886748   1.6083624  )
        50           Cu  tau(  50) = (   0.5000000   0.2886751   1.6083553  )
        51           Cu  tau(  51) = (   0.8333329   0.2886748   1.6083624  )
        52           Cu  tau(  52) = (   0.3333338   0.5773500   1.6083624  )
        53           Cu  tau(  53) = (   0.6666662   0.5773500   1.6083624  )
        54           Cu  tau(  54) = (   1.0000000   0.5773503   1.6083570  )
        55           C   tau(  55) = (   0.6567407   0.3959883   2.0231294  )
        56           C   tau(  56) = (   0.5046394   0.3028152   2.0231293  )
        57           C   tau(  57) = (   0.3478975   0.3879497   2.0231294  )
        58           C   tau(  58) = (   0.3432593   0.5662630   2.0231294  )
        59           C   tau(  59) = (   0.4953606   0.6594361   2.0231293  )
        60           C   tau(  60) = (   0.6521025   0.5743016   2.0231294  )
        61           H   tau(  61) = (   0.7789959   0.3295665   2.0232076  )
        62           H   tau(  62) = (   0.5082587   0.1637263   2.0232077  )
        63           H   tau(  63) = (   0.2292624   0.3152577   2.0232076  )
        64           H   tau(  64) = (   0.2210041   0.6326847   2.0232076  )
        65           H   tau(  65) = (   0.4917413   0.7985249   2.0232077  )
        66           H   tau(  66) = (   0.7707376   0.6469936   2.0232076  )

     number of k points=    10  gaussian smearing, width (Ry)=  0.0200
                       cart. coord. in units 2pi/alat
        k(    1) = (   0.0000000   0.0000000   0.0000000), wk =   0.1250000
        k(    2) = (   0.0000000   0.2886751   0.0000000), wk =   0.2500000
        k(    3) = (   0.0000000  -0.5773503   0.0000000), wk =   0.1250000
        k(    4) = (   0.2500000  -0.7216878   0.0000000), wk =   0.2500000
        k(    5) = (  -0.2500000   0.1443376   0.0000000), wk =   0.2500000
        k(    6) = (   0.2500000   0.1443376   0.0000000), wk =   0.2500000
        k(    7) = (   0.5000000  -0.2886751   0.0000000), wk =   0.1250000
        k(    8) = (  -0.5000000  -0.2886751   0.0000000), wk =   0.1250000
        k(    9) = (  -0.2500000  -0.7216878   0.0000000), wk =   0.2500000
        k(   10) = (  -0.5000000  -0.5773503   0.0000000), wk =   0.2500000

     Dense  grid:  2552337 G-vectors     FFT dimensions: ( 120, 120, 432)

     Smooth grid:   491295 G-vectors     FFT dimensions: (  72,  72, 243)

     Estimated max dynamical RAM per process >       1.14 GB

     Estimated total dynamical RAM >      18.26 GB

     Initial potential from superposition of free atoms
     Check: negative starting charge=   -0.000772

     starting charge 1001.99960, renormalised to 1056.00000

     negative rho (up, down):  8.133E-04 0.000E+00


     %%%%%%%%%%%%%%%%%%%%%%%%%%%%%%%%%%%%%%%%%%%%%%%%%%%%%%%%%%%%%%%%%%%%%%%%
     %                                                                      %
     % You are using vdW-DF, which was implemented by the Thonhauser group. %
     % Please cite the following two papers that made this development      %
     % possible and the two reviews that describe the various versions:     %
     %                                                                      %
     %   T. Thonhauser et al., PRL 115, 136402 (2015).                      %
     %   T. Thonhauser et al., PRB 76, 125112 (2007).                       %
     %   K. Berland et al., Rep. Prog. Phys. 78, 066501 (2015).             %
     %   D.C. Langreth et al., J. Phys.: Condens. Matter 21, 084203 (2009). %
     %                                                                      %
     %                                                                      %
     % If you are calculating the stress with vdW-DF, please also cite:     %
     %                                                                      %
     %   R. Sabatini et al., J. Phys.: Condens. Matter 24, 424209 (2012).   %
     %                                                                      %
     %%%%%%%%%%%%%%%%%%%%%%%%%%%%%%%%%%%%%%%%%%%%%%%%%%%%%%%%%%%%%%%%%%%%%%%%


     Starting wfcs are  732 randomized atomic wfcs

     total cpu time spent up to now is       69.2 secs

     Self-consistent Calculation

     iteration #  1     ecut=    50.00 Ry     beta= 0.30
     Davidson diagonalization with overlap
     ethr =  1.00E-02,  avg # of iterations =  6.0

     negative rho (up, down):  4.881E-04 0.000E+00

     total cpu time spent up to now is     1181.3 secs

     total energy              =  -18898.05613915 Ry
     Harris-Foulkes estimate   =  -22008.47773648 Ry
     estimated scf accuracy    <    6147.33453044 Ry

     iteration #  2     ecut=    50.00 Ry     beta= 0.30
     Davidson diagonalization with overlap
     c_bands:  4 eigenvalues not converged
     ethr =  1.00E-02,  avg # of iterations = 18.9

     negative rho (up, down):  5.317E-04 0.000E+00

     total cpu time spent up to now is     3535.0 secs

     total energy              =  -19255.08861672 Ry
     Harris-Foulkes estimate   =  -39105.16231999 Ry
     estimated scf accuracy    <  281402.77587856 Ry

     iteration #  3     ecut=    50.00 Ry     beta= 0.30
     Davidson diagonalization with overlap
     ethr =  1.00E-02,  avg # of iterations =  8.0

     negative rho (up, down):  6.109E-04 0.000E+00

     total cpu time spent up to now is     4977.2 secs

     total energy              =  -21727.99120892 Ry
     Harris-Foulkes estimate   =  -23449.41485021 Ry
     estimated scf accuracy    <   44161.11106346 Ry

     iteration #  4     ecut=    50.00 Ry     beta= 0.30
     Davidson diagonalization with overlap
     ethr =  1.00E-02,  avg # of iterations =  8.0

     negative rho (up, down):  8.307E-04 0.000E+00

     total cpu time spent up to now is     5901.0 secs

     total energy              =  -21747.52495316 Ry
     Harris-Foulkes estimate   =  -22133.73424570 Ry
     estimated scf accuracy    <   10750.51312764 Ry

     iteration #  5     ecut=    50.00 Ry     beta= 0.30
     Davidson diagonalization with overlap
     ethr =  1.00E-02,  avg # of iterations =  6.0

     negative rho (up, down):  2.753E-04 0.000E+00

     total cpu time spent up to now is     6992.8 secs

     total energy              =  -21714.43913236 Ry
     Harris-Foulkes estimate   =  -22172.75753870 Ry
     estimated scf accuracy    <    9408.54437074 Ry

     iteration #  6     ecut=    50.00 Ry     beta= 0.30
     Davidson diagonalization with overlap
     ethr =  1.00E-02,  avg # of iterations =  6.0

     negative rho (up, down):  3.461E-04 0.000E+00

     total cpu time spent up to now is     7921.4 secs

     total energy              =  -21879.73121647 Ry
     Harris-Foulkes estimate   =  -21971.10457951 Ry
     estimated scf accuracy    <     797.34660643 Ry

     iteration #  7     ecut=    50.00 Ry     beta= 0.30
     Davidson diagonalization with overlap
     ethr =  1.00E-02,  avg # of iterations =  2.7

     negative rho (up, down):  4.539E-04 0.000E+00

     total cpu time spent up to now is     8153.3 secs

     total energy              =  -21913.16031569 Ry
     Harris-Foulkes estimate   =  -21937.26020190 Ry
     estimated scf accuracy    <     751.28467953 Ry

     iteration #  8     ecut=    50.00 Ry     beta= 0.30
     Davidson diagonalization with overlap
     ethr =  1.00E-02,  avg # of iterations =  1.8

     negative rho (up, down):  6.641E-04 0.000E+00

     total cpu time spent up to now is     8327.7 secs

     total energy              =  -21912.70475500 Ry
     Harris-Foulkes estimate   =  -21925.16588098 Ry
     estimated scf accuracy    <      90.86142110 Ry

     iteration #  9     ecut=    50.00 Ry     beta= 0.30
     Davidson diagonalization with overlap
     ethr =  8.60E-03,  avg # of iterations =  2.9

     negative rho (up, down):  7.886E-04 0.000E+00

     total cpu time spent up to now is     8539.7 secs

     total energy              =  -21913.29958521 Ry
     Harris-Foulkes estimate   =  -21916.63875186 Ry
     estimated scf accuracy    <      96.89794788 Ry

     iteration # 10     ecut=    50.00 Ry     beta= 0.30
     Davidson diagonalization with overlap
     ethr =  8.60E-03,  avg # of iterations =  1.3

     negative rho (up, down):  1.551E-02 0.000E+00

     total cpu time spent up to now is     8703.7 secs

     total energy              =  -21893.61285651 Ry
     Harris-Foulkes estimate   =  -21913.67677769 Ry
     estimated scf accuracy    <      90.88187704 Ry

     iteration # 11     ecut=    50.00 Ry     beta= 0.30
     Davidson diagonalization with overlap
     ethr =  8.60E-03,  avg # of iterations =  3.7

     negative rho (up, down):  2.825E-04 0.000E+00

     total cpu time spent up to now is     9050.3 secs

     total energy              =  -21895.12820472 Ry
     Harris-Foulkes estimate   =  -21917.73306259 Ry
     estimated scf accuracy    <     435.49961190 Ry

     iteration # 12     ecut=    50.00 Ry     beta= 0.30
     Davidson diagonalization with overlap
     ethr =  8.60E-03,  avg # of iterations =  3.0

     negative rho (up, down):  2.379E-04 0.000E+00

     total cpu time spent up to now is     9266.2 secs

     total energy              =  -21902.17683332 Ry
     Harris-Foulkes estimate   =  -21906.03198728 Ry
     estimated scf accuracy    <      28.69279984 Ry

     iteration # 13     ecut=    50.00 Ry     beta= 0.30
     Davidson diagonalization with overlap
     ethr =  2.72E-03,  avg # of iterations =  3.0

     negative rho (up, down):  2.384E-04 0.000E+00

     total cpu time spent up to now is     9486.9 secs

     total energy              =  -21903.38055281 Ry
     Harris-Foulkes estimate   =  -21904.22707784 Ry
     estimated scf accuracy    <       6.86163382 Ry

     iteration # 14     ecut=    50.00 Ry     beta= 0.30
     Davidson diagonalization with overlap
     ethr =  6.50E-04,  avg # of iterations =  5.6

     negative rho (up, down):  2.758E-04 0.000E+00

     total cpu time spent up to now is     9820.3 secs

     total energy              =  -21903.57344351 Ry
     Harris-Foulkes estimate   =  -21904.24843871 Ry
     estimated scf accuracy    <       4.11467930 Ry

     iteration # 15     ecut=    50.00 Ry     beta= 0.30
     Davidson diagonalization with overlap
     ethr =  3.90E-04,  avg # of iterations =  3.3

     negative rho (up, down):  2.777E-04 0.000E+00

     total cpu time spent up to now is    10053.1 secs

     total energy              =  -21903.72654354 Ry
     Harris-Foulkes estimate   =  -21904.18222387 Ry
     estimated scf accuracy    <       6.86008373 Ry

     iteration # 16     ecut=    50.00 Ry     beta= 0.30
     Davidson diagonalization with overlap
     ethr =  3.90E-04,  avg # of iterations =  2.6

     negative rho (up, down):  3.380E-04 0.000E+00

     total cpu time spent up to now is    10260.6 secs

     total energy              =  -21903.80493752 Ry
     Harris-Foulkes estimate   =  -21903.96815212 Ry
     estimated scf accuracy    <       0.96462194 Ry

     iteration # 17     ecut=    50.00 Ry     beta= 0.30
     Davidson diagonalization with overlap
     ethr =  9.13E-05,  avg # of iterations =  7.4

     negative rho (up, down):  4.011E-04 0.000E+00

     total cpu time spent up to now is    10646.8 secs

     total energy              =  -21903.78258275 Ry
     Harris-Foulkes estimate   =  -21903.90968625 Ry
     estimated scf accuracy    <       1.92390313 Ry

     iteration # 18     ecut=    50.00 Ry     beta= 0.30
     Davidson diagonalization with overlap
     ethr =  9.13E-05,  avg # of iterations =  4.0

     negative rho (up, down):  4.799E-04 0.000E+00

     total cpu time spent up to now is    10893.0 secs

     total energy              =  -21903.78713114 Ry
     Harris-Foulkes estimate   =  -21903.82606073 Ry
     estimated scf accuracy    <       0.75486638 Ry

     iteration # 19     ecut=    50.00 Ry     beta= 0.30
     Davidson diagonalization with overlap
     ethr =  7.15E-05,  avg # of iterations =  7.4

     negative rho (up, down):  5.192E-04 0.000E+00

     total cpu time spent up to now is    11251.5 secs

     total energy              =  -21903.78700488 Ry
     Harris-Foulkes estimate   =  -21903.80249870 Ry
     estimated scf accuracy    <       0.27928614 Ry

     iteration # 20     ecut=    50.00 Ry     beta= 0.30
     Davidson diagonalization with overlap
     ethr =  2.64E-05,  avg # of iterations =  6.2

     negative rho (up, down):  9.375E-04 0.000E+00

     total cpu time spent up to now is    11568.4 secs

     total energy              =  -21903.73696983 Ry
     Harris-Foulkes estimate   =  -21903.79324827 Ry
     estimated scf accuracy    <       0.42516289 Ry

     iteration # 21     ecut=    50.00 Ry     beta= 0.30
     Davidson diagonalization with overlap
     ethr =  2.64E-05,  avg # of iterations =  7.5

     negative rho (up, down):  9.139E-04 0.000E+00

     total cpu time spent up to now is    11981.1 secs

     total energy              =  -21903.75805284 Ry
     Harris-Foulkes estimate   =  -21903.77412222 Ry
     estimated scf accuracy    <       0.26855979 Ry

     iteration # 22     ecut=    50.00 Ry     beta= 0.30
     Davidson diagonalization with overlap
     ethr =  2.54E-05,  avg # of iterations =  5.3

     negative rho (up, down):  1.038E-03 0.000E+00

     total cpu time spent up to now is    12275.7 secs

     total energy              =  -21903.76560949 Ry
     Harris-Foulkes estimate   =  -21903.76818935 Ry
     estimated scf accuracy    <       0.01474821 Ry

     iteration # 23     ecut=    50.00 Ry     beta= 0.30
     Davidson diagonalization with overlap
     ethr =  1.40E-06,  avg # of iterations =  7.0

     negative rho (up, down):  1.401E-03 0.000E+00

     total cpu time spent up to now is    12645.5 secs

     total energy              =  -21903.76497439 Ry
     Harris-Foulkes estimate   =  -21903.76672844 Ry
     estimated scf accuracy    <       0.00318927 Ry

     iteration # 24     ecut=    50.00 Ry     beta= 0.30
     Davidson diagonalization with overlap
     ethr =  3.02E-07,  avg # of iterations =  8.0

     negative rho (up, down):  1.763E-03 0.000E+00

     total cpu time spent up to now is    13083.5 secs

     total energy              =  -21903.76500564 Ry
     Harris-Foulkes estimate   =  -21903.76555846 Ry
     estimated scf accuracy    <       0.00480116 Ry

     iteration # 25     ecut=    50.00 Ry     beta= 0.30
     Davidson diagonalization with overlap
     ethr =  3.02E-07,  avg # of iterations =  4.6

     negative rho (up, down):  1.918E-03 0.000E+00

     total cpu time spent up to now is    13364.9 secs

     total energy              =  -21903.76518030 Ry
     Harris-Foulkes estimate   =  -21903.76532580 Ry
     estimated scf accuracy    <       0.00182245 Ry

     iteration # 26     ecut=    50.00 Ry     beta= 0.30
     Davidson diagonalization with overlap
     ethr =  1.73E-07,  avg # of iterations =  2.0

     negative rho (up, down):  2.052E-03 0.000E+00

     total cpu time spent up to now is    13553.8 secs

     total energy              =  -21903.76526704 Ry
     Harris-Foulkes estimate   =  -21903.76529205 Ry
     estimated scf accuracy    <       0.00037847 Ry

     iteration # 27     ecut=    50.00 Ry     beta= 0.30
     Davidson diagonalization with overlap
     ethr =  3.58E-08,  avg # of iterations =  2.9

     negative rho (up, down):  2.202E-03 0.000E+00

     total cpu time spent up to now is    13766.2 secs

     total energy              =  -21903.76529333 Ry
     Harris-Foulkes estimate   =  -21903.76529029 Ry
     estimated scf accuracy    <       0.00004140 Ry

     iteration # 28     ecut=    50.00 Ry     beta= 0.30
     Davidson diagonalization with overlap
     ethr =  3.92E-09,  avg # of iterations =  3.2

     negative rho (up, down):  2.311E-03 0.000E+00

     total cpu time spent up to now is    14026.4 secs

     total energy              =  -21903.76530301 Ry
     Harris-Foulkes estimate   =  -21903.76530215 Ry
     estimated scf accuracy    <       0.00003547 Ry

     iteration # 29     ecut=    50.00 Ry     beta= 0.30
     Davidson diagonalization with overlap
     ethr =  3.36E-09,  avg # of iterations =  2.2

     negative rho (up, down):  2.386E-03 0.000E+00

     total cpu time spent up to now is    14220.4 secs

     total energy              =  -21903.76530767 Ry
     Harris-Foulkes estimate   =  -21903.76530636 Ry
     estimated scf accuracy    <       0.00000911 Ry

     iteration # 30     ecut=    50.00 Ry     beta= 0.30
     Davidson diagonalization with overlap
     ethr =  8.63E-10,  avg # of iterations =  2.2

     negative rho (up, down):  2.437E-03 0.000E+00

     total cpu time spent up to now is    14419.1 secs

     total energy              =  -21903.76530888 Ry
     Harris-Foulkes estimate   =  -21903.76530899 Ry
     estimated scf accuracy    <       0.00000842 Ry

     iteration # 31     ecut=    50.00 Ry     beta= 0.30
     Davidson diagonalization with overlap
     ethr =  7.98E-10,  avg # of iterations =  2.0

     negative rho (up, down):  2.469E-03 0.000E+00

     total cpu time spent up to now is    14607.4 secs

     total energy              =  -21903.76530938 Ry
     Harris-Foulkes estimate   =  -21903.76531011 Ry
     estimated scf accuracy    <       0.00002080 Ry

     iteration # 32     ecut=    50.00 Ry     beta= 0.30
     Davidson diagonalization with overlap
     ethr =  7.98E-10,  avg # of iterations =  2.0

     negative rho (up, down):  2.504E-03 0.000E+00

     total cpu time spent up to now is    14788.2 secs

     total energy              =  -21903.76530996 Ry
     Harris-Foulkes estimate   =  -21903.76530996 Ry
     estimated scf accuracy    <       0.00000063 Ry

     iteration # 33     ecut=    50.00 Ry     beta= 0.30
     Davidson diagonalization with overlap
     ethr =  5.93E-11,  avg # of iterations =  3.0

     negative rho (up, down):  2.515E-03 0.000E+00

     total cpu time spent up to now is    15002.4 secs

     total energy              =  -21903.76530995 Ry
     Harris-Foulkes estimate   =  -21903.76531003 Ry
     estimated scf accuracy    <       0.00000023 Ry

     iteration # 34     ecut=    50.00 Ry     beta= 0.30
     Davidson diagonalization with overlap
     ethr =  2.15E-11,  avg # of iterations =  2.0

     negative rho (up, down):  2.524E-03 0.000E+00

     total cpu time spent up to now is    15191.9 secs

     total energy              =  -21903.76530991 Ry
     Harris-Foulkes estimate   =  -21903.76530998 Ry
     estimated scf accuracy    <       0.00000005 Ry

     iteration # 35     ecut=    50.00 Ry     beta= 0.30
     Davidson diagonalization with overlap
     ethr =  4.88E-12,  avg # of iterations =  3.0

     negative rho (up, down):  2.526E-03 0.000E+00

     total cpu time spent up to now is    15429.6 secs

     total energy              =  -21903.76530989 Ry
     Harris-Foulkes estimate   =  -21903.76530992 Ry
     estimated scf accuracy    <       0.00000009 Ry

     iteration # 36     ecut=    50.00 Ry     beta= 0.30
     Davidson diagonalization with overlap
     ethr =  4.88E-12,  avg # of iterations =  2.0

     negative rho (up, down):  2.528E-03 0.000E+00

     total cpu time spent up to now is    15611.2 secs

     total energy              =  -21903.76530988 Ry
     Harris-Foulkes estimate   =  -21903.76530989 Ry
     estimated scf accuracy    <       0.00000001 Ry

     iteration # 37     ecut=    50.00 Ry     beta= 0.30
     Davidson diagonalization with overlap
     ethr =  1.05E-12,  avg # of iterations =  2.0

     negative rho (up, down):  2.528E-03 0.000E+00

     total cpu time spent up to now is    15796.6 secs

     total energy              =  -21903.76530988 Ry
     Harris-Foulkes estimate   =  -21903.76530988 Ry
     estimated scf accuracy    <       0.00000001 Ry

     iteration # 38     ecut=    50.00 Ry     beta= 0.30
     Davidson diagonalization with overlap
     ethr =  1.05E-12,  avg # of iterations =  2.0

     negative rho (up, down):  2.530E-03 0.000E+00

     total cpu time spent up to now is    15974.1 secs

     End of self-consistent calculation

          k = 0.0000 0.0000 0.0000 ( 61453 PWs)   bands (ev):

  -107.7924-107.7891-107.7847-107.7847-107.7844-107.7839-107.7839-107.7837
  -107.7825-107.7811-107.7811-107.7807-107.7807-107.7799-107.7799-107.7796
  -107.7793-107.7792-107.7756-107.7756-107.7753-107.7740-107.7740-107.7732
  -107.7712-107.7712-107.7702-107.7701-107.7666-107.7652-107.7652-107.7651
  -107.7651-107.7640-107.7628-107.7615-107.5719-107.5686-107.5686-107.5662
  -107.5641-107.5641-107.5586-107.5564-107.5564-107.5309-107.5260-107.5260
  -107.5260-107.5256-107.5256-107.5256-107.5232-107.5232 -65.2454 -65.2335
   -65.2319 -65.2319 -65.2313 -65.2313 -65.2304 -65.2249 -65.2246 -65.2246
   -65.2237 -65.2237 -65.2229 -65.2229 -65.2229 -65.2202 -65.2199 -65.2199
   -65.2195 -65.2181 -65.2132 -65.2132 -65.2124 -65.2112 -65.2108 -65.2108
   -65.2095 -65.2094 -65.2094 -65.2089 -65.2089 -65.2078 -65.2078 -65.2077
   -65.2056 -65.2055 -65.2055 -65.2049 -65.2003 -65.2003 -65.2000 -65.1992
   -65.1990 -65.1990 -65.1984 -65.1984 -65.1949 -65.1948 -65.1948 -65.1922
   -65.1920 -65.1916 -65.1916 -65.1916 -65.1916 -65.1910 -65.1872 -65.1846
   -65.1846 -65.1837 -65.1837 -65.1832 -65.1829 -65.1829 -65.1821 -65.1820
   -65.1819 -65.1819 -65.1805 -65.1798 -65.1798 -65.1796 -65.1796 -65.1770
   -65.1770 -65.1738 -65.1736 -65.1736 -65.1736 -65.1732 -65.1732 -65.1724
   -65.1724 -65.1721 -65.1714 -65.1714 -65.1714 -65.1691 -65.1671 -65.1671
   -65.1668 -65.1660 -65.1660 -65.1660 -65.1655 -65.1655 -65.1600 -65.1600
   -65.1590 -65.1590 -65.1588 -65.1582 -65.1579 -65.1579 -65.1544 -65.1544
   -65.1476 -65.1476 -65.0241 -65.0241 -65.0236 -65.0193 -65.0189 -65.0189
   -65.0181 -65.0156 -65.0156 -65.0115 -64.9884 -64.9855 -64.9854 -64.9854
   -64.9852 -64.9852 -64.9852 -64.9849 -64.9849 -64.9832 -64.9832 -64.9826
   -64.9826 -64.9823 -64.9820 -64.9810 -64.9709 -64.9709 -64.9513 -64.9499
   -64.9499 -64.9498 -64.9498 -64.9498 -64.9493 -64.9485 -64.9484 -64.9445
   -64.9424 -64.9424 -64.9376 -64.9376 -64.9358 -64.9338 -64.9337 -64.9029
   -64.8983 -64.8983 -64.8982 -64.8978 -64.8978 -64.8978 -64.8955 -64.8955
   -12.8141 -10.0630 -10.0627  -6.4644  -6.4639  -4.5376  -4.0565  -3.4387
    -2.9331  -2.5545  -2.4947  -1.8987  -1.8986  -1.3922  -1.0931  -1.0909
    -1.0909  -1.0906  -1.0906  -1.0906  -0.8058  -0.6884  -0.6884  -0.6874
    -0.6874  -0.6873  -0.6692  -0.4311  -0.1906  -0.1902  -0.1902  -0.1886
    -0.1885  -0.1877  -0.1709   0.0377   0.0380   0.2593   0.2593   0.2632
     0.2647   0.2647   0.2686   0.6089   0.6089   0.6130   0.6134   0.6134
     0.6165   0.7389   0.7389   0.7397   0.7402   0.7402   0.7411   0.7882
     0.7882   0.7891   0.7891   0.7892   0.7902   0.8187   0.8187   0.8326
     0.8326   0.8419   0.8420   0.9378   0.9379   0.9474   0.9474   0.9625
     0.9625   0.9642   0.9658   0.9658   0.9671   0.9775   0.9775   0.9786
     0.9787   1.0222   1.0222   1.0709   1.0709   1.1700   1.1700   1.1749
     1.1749   1.1776   1.1781   1.1781   1.1800   1.2154   1.2154   1.4046
     1.4046   1.4143   1.4143   1.4148   1.4165   1.5472   1.5472   1.5555
     1.5555   1.5595   1.5595   1.5688   1.5688   1.5695   1.5706   1.6098
     1.6099   1.6102   1.6282   1.6730   1.6730   1.6824   1.6824   1.6831
     1.6832   1.6949   1.6950   1.7226   1.7226   1.7432   1.7432   1.7514
     1.7592   1.7592   1.7679   1.7679   1.7680   1.7696   1.8080   1.8081
     1.8092   1.8092   1.8202   1.8206   1.8206   1.8212   1.8409   1.8410
     1.8410   1.8419   1.8421   1.8421   1.8479   1.8479   1.8561   1.8561
     1.8617   1.9497   1.9498   1.9651   1.9672   1.9672   1.9701   1.9705
     1.9735   1.9873   1.9873   2.0022   2.0022   2.0191   2.0193   2.0410
     2.0410   2.0419   2.0419   2.0420   2.0421   2.0421   2.0428   2.0435
     2.0435   2.2288   2.2288   2.2292   2.2339   2.2749   2.2749   2.2990
     2.2992   2.2992   2.3003   2.3004   2.3004   2.3563   2.3563   2.3593
     2.3612   2.3781   2.3781   2.3812   2.3812   2.4039   2.4039   2.4052
     2.4052   2.4535   2.4699   2.4699   2.4981   2.4981   2.4996   2.4996
     2.5013   2.5071   2.5190   2.5190   2.5285   2.5285   2.5296   2.5304
     2.5305   2.5309   2.5311   2.5311   2.5381   2.5381   2.6045   2.6045
     2.6702   2.6704   2.6704   2.6710   2.6712   2.6712   2.7253   2.7262
     2.7262   2.7280   2.7306   2.7306   2.7306   2.7312   2.7313   2.7313
     2.7366   2.7366   2.7905   2.7905   2.7980   2.7984   2.7984   2.7993
     2.7993   2.7993   2.8102   2.8103   2.8103   2.8108   2.8110   2.8110
     2.8335   2.8336   2.8336   2.8340   2.8342   2.8342   2.8573   2.8573
     2.8771   2.8771   2.8948   2.8968   2.8968   2.8981   2.8981   2.8990
     2.9078   2.9079   2.9281   2.9284   2.9284   2.9291   2.9291   2.9294
     2.9554   2.9554   2.9575   2.9575   2.9629   2.9629   2.9821   2.9823
     2.9935   2.9937   2.9937   2.9949   2.9949   2.9952   3.0188   3.0188
     3.0195   3.0236   3.0236   3.0281   3.0662   3.0662   3.0732   3.0733
     3.0733   3.0745   3.0746   3.0746   3.9060   3.9963   3.9963   4.0001
     4.0335   4.0512   4.0512   4.5160   5.4143   5.4143   5.4293   5.4618
     5.4953   5.4953   6.9437   6.9438   7.0270   7.1904   7.3030   7.3128
     7.3128   7.4417   7.4418   7.8685   7.8685   7.8688   7.8690   7.8851
     7.8851   8.1831   8.2600   8.2601   8.2824   8.2824   8.4635   8.6700
     8.6729   8.7971   8.8867   8.8868   8.9275   8.9286   9.0180   9.0959
     9.0959   9.3088   9.4623   9.5519   9.5519   9.5602   9.5602   9.8357
     9.8359   9.8813   9.9343   9.9369  10.5573  10.5896  10.6886  10.6886
    10.7290  10.7290  10.8790  10.8791  10.9262  10.9263  10.9832  11.0446
    11.0446  11.1288  11.2258  11.3380  11.3380  11.3771  11.3771  11.3999
    11.5088  11.6366  11.6366  11.7947  11.8386  11.8386  11.8762  11.8762
    11.9278  11.9437  11.9437  11.9686  11.9686  12.0349  12.1362  12.2315
    12.2315  12.2598  12.3100  12.3628  12.3628  12.4935  12.4935  12.7525
    12.8770  12.8827  12.8828  13.0171  13.0172  13.0356  13.0453  13.0624
    13.1451  13.1563

          k = 0.0000 0.2887 0.0000 ( 61417 PWs)   bands (ev):

  -107.7921-107.7890-107.7861-107.7852-107.7844-107.7838-107.7831-107.7828
  -107.7821-107.7814-107.7814-107.7806-107.7806-107.7803-107.7800-107.7793
  -107.7793-107.7790-107.7765-107.7757-107.7752-107.7738-107.7738-107.7729
  -107.7713-107.7713-107.7702-107.7697-107.7671-107.7658-107.7657-107.7646
  -107.7644-107.7636-107.7630-107.7615-107.5717-107.5688-107.5686-107.5663
  -107.5640-107.5639-107.5587-107.5564-107.5563-107.5305-107.5275-107.5265
  -107.5264-107.5250-107.5249-107.5245-107.5234-107.5234 -65.2440 -65.2353
   -65.2343 -65.2332 -65.2323 -65.2320 -65.2313 -65.2308 -65.2284 -65.2282
   -65.2270 -65.2269 -65.2255 -65.2253 -65.2208 -65.2199 -65.2194 -65.2177
   -65.2168 -65.2161 -65.2155 -65.2154 -65.2152 -65.2147 -65.2131 -65.2131
   -65.2125 -65.2117 -65.2081 -65.2081 -65.2056 -65.2050 -65.2050 -65.2039
   -65.2037 -65.2029 -65.2024 -65.2020 -65.2002 -65.2000 -65.1979 -65.1978
   -65.1953 -65.1944 -65.1942 -65.1939 -65.1931 -65.1930 -65.1919 -65.1913
   -65.1905 -65.1898 -65.1891 -65.1884 -65.1881 -65.1874 -65.1868 -65.1864
   -65.1857 -65.1847 -65.1842 -65.1841 -65.1837 -65.1834 -65.1834 -65.1812
   -65.1808 -65.1792 -65.1791 -65.1783 -65.1781 -65.1771 -65.1767 -65.1765
   -65.1761 -65.1755 -65.1755 -65.1749 -65.1746 -65.1746 -65.1745 -65.1732
   -65.1729 -65.1717 -65.1713 -65.1704 -65.1698 -65.1697 -65.1692 -65.1691
   -65.1687 -65.1686 -65.1669 -65.1657 -65.1656 -65.1634 -65.1625 -65.1624
   -65.1624 -65.1612 -65.1607 -65.1588 -65.1587 -65.1579 -65.1555 -65.1548
   -65.1517 -65.1486 -65.0326 -65.0282 -65.0276 -65.0240 -65.0226 -65.0132
   -65.0127 -65.0075 -65.0070 -65.0025 -64.9967 -64.9911 -64.9909 -64.9909
   -64.9900 -64.9898 -64.9884 -64.9869 -64.9843 -64.9831 -64.9799 -64.9780
   -64.9778 -64.9748 -64.9723 -64.9721 -64.9719 -64.9693 -64.9539 -64.9537
   -64.9527 -64.9512 -64.9498 -64.9496 -64.9486 -64.9485 -64.9457 -64.9446
   -64.9424 -64.9423 -64.9419 -64.9387 -64.9359 -64.9338 -64.9337 -64.9024
   -64.8996 -64.8986 -64.8986 -64.8973 -64.8972 -64.8968 -64.8958 -64.8957
   -12.8133 -10.0665 -10.0635  -6.4671  -6.4598  -4.5110  -3.8431  -3.2299
    -2.9057  -2.5581  -2.2956  -2.2405  -1.9480  -1.9063  -1.6936  -1.5296
    -1.5287  -1.2145  -1.0508  -1.0463  -0.9118  -0.7324  -0.4726  -0.4722
    -0.3856  -0.3792  -0.2874  -0.2613  -0.1877  -0.1868  -0.0521  -0.0284
    -0.0144   0.0068   0.0364   0.0838   0.0878   0.0888   0.2601   0.2680
     0.2930   0.3586   0.3590   0.5406   0.5483   0.5797   0.5797   0.6017
     0.6158   0.6158   0.6374   0.6381   0.6818   0.6860   0.6875   0.6886
     0.6998   0.7002   0.7414   0.7414   0.7770   0.7771   0.8066   0.8067
     0.8108   0.8576   0.8589   0.8728   0.8728   0.8937   0.8943   0.9065
     0.9067   0.9368   0.9373   0.9822   1.0499   1.0499   1.0530   1.0795
     1.0795   1.0917   1.0931   1.1264   1.1268   1.1640   1.1662   1.1662
     1.2317   1.2317   1.2496   1.2554   1.2761   1.2767   1.3214   1.3224
     1.3366   1.3579   1.3604   1.3630   1.3895   1.4341   1.4358   1.4507
     1.4516   1.4613   1.4881   1.4971   1.5115   1.5320   1.5328   1.5421
     1.5696   1.5697   1.5973   1.6352   1.6541   1.6620   1.6622   1.6691
     1.6729   1.6763   1.6953   1.7113   1.7209   1.7305   1.7309   1.7471
     1.7472   1.7488   1.7695   1.7724   1.7747   1.7849   1.7927   1.7934
     1.8046   1.8136   1.8138   1.8224   1.8265   1.8412   1.8431   1.8470
     1.8482   1.8514   1.8615   1.8675   1.8770   1.8780   1.8891   1.8971
     1.9034   1.9102   1.9115   1.9320   1.9372   1.9457   1.9458   1.9641
     1.9684   1.9705   1.9845   1.9917   1.9919   1.9944   2.0042   2.0101
     2.0228   2.0334   2.0617   2.0626   2.0778   2.0782   2.0837   2.0850
     2.0912   2.1043   2.1070   2.1291   2.1332   2.1354   2.1454   2.1634
     2.1831   2.1888   2.2175   2.2258   2.2305   2.2311   2.2426   2.2437
     2.2917   2.3098   2.3349   2.3361   2.3425   2.3438   2.3571   2.3578
     2.3865   2.3882   2.3989   2.3996   2.4030   2.4056   2.4326   2.4335
     2.4665   2.4714   2.4759   2.4768   2.4842   2.5093   2.5125   2.5156
     2.5163   2.5202   2.5500   2.5618   2.5658   2.5704   2.5717   2.5881
     2.5929   2.5934   2.6111   2.6133   2.6148   2.6150   2.6253   2.6291
     2.6491   2.6577   2.6995   2.7050   2.7085   2.7356   2.7378   2.7472
     2.7501   2.7511   2.7517   2.7554   2.7725   2.7736   2.7744   2.7874
     2.7913   2.7920   2.7959   2.8089   2.8325   2.8424   2.8425   2.8453
     2.8557   2.8569   2.8744   2.8765   2.8835   2.8852   2.9312   2.9314
     2.9320   2.9357   2.9358   2.9448   2.9538   2.9551   2.9586   2.9634
     2.9658   2.9660   2.9719   2.9721   2.9766   2.9815   2.9895   2.9908
     3.0087   3.0201   3.0202   3.0212   3.0232   3.0274   3.0286   3.0291
     3.0513   3.0597   3.0708   3.0726   3.0758   3.0768   3.0901   3.0916
     3.1518   3.1816   3.2288   3.3107   3.3363   3.3368   3.4202   3.4967
     3.4970   3.7499   3.7979   3.8022   3.8071   3.8333   4.1132   4.3297
     4.5037   4.7728   4.7767   5.0006   5.0870   5.0997   5.1285   5.8646
     5.8651   6.0833   6.2056   6.2394   6.2605   6.2612   6.4940   6.7205
     6.8050   6.9088   6.9394   7.1712   7.2074   7.3584   7.4950   7.7614
     7.7936   7.8066   7.9757   8.0558   8.2530   8.2660   8.2850   8.4091
     8.4271   8.7297   8.7340   8.7513   8.8738   8.9583   9.2794   9.2831
     9.3169   9.4313   9.5713   9.6733   9.7954   9.8296   9.9161   9.9615
    10.0159  10.0278  10.0682  10.1507  10.2628  10.4217  10.4340  10.4524
    10.5345  10.5616  10.6151  10.6774  10.7276  10.7848  10.7942  10.8849
    10.9489  10.9657  10.9841  11.0219  11.0993  11.2549  11.4506  11.4635
    11.5098  11.5212  11.5895  11.6154  11.7080  11.7742  11.9378  11.9440
    12.0564  12.1768  12.2365  12.3190  12.3608  12.4187  12.4810  12.4957
    12.5460  12.5929  12.6637  12.7124  12.8253  12.8396  12.8742  12.8836
    12.9662  13.0376  13.1304  13.1475  13.2002  13.2471  13.2753  13.3929
    13.3985  13.4381

          k = 0.0000-0.5774 0.0000 ( 61408 PWs)   bands (ev):

  -107.7919-107.7886-107.7872-107.7855-107.7846-107.7834-107.7828-107.7823
  -107.7820-107.7815-107.7812-107.7811-107.7809-107.7803-107.7797-107.7794
  -107.7789-107.7785-107.7775-107.7758-107.7754-107.7735-107.7735-107.7728
  -107.7714-107.7713-107.7702-107.7691-107.7679-107.7661-107.7659-107.7644
  -107.7636-107.7636-107.7634-107.7615-107.5715-107.5691-107.5686-107.5664
  -107.5640-107.5638-107.5587-107.5564-107.5563-107.5293-107.5291-107.5267
  -107.5266-107.5243-107.5243-107.5241-107.5239-107.5238 -65.2407 -65.2396
   -65.2373 -65.2360 -65.2327 -65.2322 -65.2311 -65.2308 -65.2299 -65.2297
   -65.2292 -65.2290 -65.2287 -65.2279 -65.2248 -65.2193 -65.2181 -65.2180
   -65.2177 -65.2174 -65.2169 -65.2167 -65.2162 -65.2160 -65.2138 -65.2135
   -65.2130 -65.2123 -65.2066 -65.2059 -65.2052 -65.2049 -65.2044 -65.2038
   -65.2027 -65.1993 -65.1991 -65.1973 -65.1958 -65.1956 -65.1955 -65.1951
   -65.1948 -65.1936 -65.1927 -65.1926 -65.1921 -65.1911 -65.1911 -65.1904
   -65.1883 -65.1882 -65.1879 -65.1877 -65.1875 -65.1871 -65.1861 -65.1854
   -65.1833 -65.1825 -65.1821 -65.1817 -65.1814 -65.1810 -65.1809 -65.1808
   -65.1807 -65.1806 -65.1802 -65.1791 -65.1778 -65.1778 -65.1772 -65.1767
   -65.1764 -65.1761 -65.1747 -65.1741 -65.1737 -65.1735 -65.1734 -65.1728
   -65.1722 -65.1722 -65.1711 -65.1706 -65.1705 -65.1701 -65.1699 -65.1698
   -65.1695 -65.1690 -65.1688 -65.1664 -65.1662 -65.1659 -65.1657 -65.1650
   -65.1631 -65.1626 -65.1620 -65.1620 -65.1602 -65.1597 -65.1587 -65.1580
   -65.1516 -65.1508 -65.0365 -65.0304 -65.0299 -65.0265 -65.0250 -65.0096
   -65.0089 -65.0009 -64.9997 -64.9977 -64.9961 -64.9949 -64.9932 -64.9930
   -64.9929 -64.9927 -64.9911 -64.9881 -64.9870 -64.9841 -64.9814 -64.9778
   -64.9744 -64.9742 -64.9733 -64.9620 -64.9619 -64.9619 -64.9616 -64.9538
   -64.9536 -64.9534 -64.9511 -64.9508 -64.9506 -64.9487 -64.9485 -64.9447
   -64.9424 -64.9422 -64.9418 -64.9415 -64.9359 -64.9338 -64.9337 -64.9014
   -64.9011 -64.8988 -64.8988 -64.8967 -64.8966 -64.8964 -64.8961 -64.8961
   -12.8125 -10.0700 -10.0642  -6.4704  -6.4551  -4.4836  -3.2178  -3.2175
    -2.8778  -2.6235  -2.6218  -2.5619  -2.0024  -1.9140  -1.7303  -1.7057
    -1.6849  -1.6841  -1.1822  -1.1759  -0.8724  -0.6522  -0.5514  -0.4567
    -0.4339  -0.0719  -0.0449   0.0376   0.1062   0.1120   0.1317   0.1317
     0.1320   0.1331   0.1342   0.2189   0.2864   0.2960   0.2995   0.3076
     0.3109   0.3299   0.3300   0.3303   0.3305   0.3848   0.3850   0.3855
     0.3855   0.5133   0.5484   0.5485   0.5500   0.5500   0.5832   0.6293
     0.7279   0.7281   0.7284   0.7286   0.7389   0.7614   0.7661   0.7789
     0.7790   0.7808   0.7809   0.9015   0.9017   0.9022   0.9023   0.9238
     0.9254   1.0096   1.0204   1.0207   1.0229   1.0231   1.0622   1.0624
     1.1057   1.1060   1.1716   1.1720   1.1742   1.1746   1.2364   1.2368
     1.2671   1.2687   1.2823   1.2827   1.2857   1.2866   1.3067   1.3069
     1.3297   1.3430   1.3889   1.4060   1.4079   1.4336   1.4354   1.4465
     1.4541   1.4623   1.4630   1.4642   1.4642   1.5160   1.5222   1.5228
     1.5228   1.5244   1.5251   1.5713   1.5809   1.5854   1.5970   1.6000
     1.6004   1.6075   1.6076   1.6078   1.6239   1.6630   1.6890   1.6973
     1.6984   1.7005   1.7124   1.7450   1.7474   1.7484   1.7488   1.7493
     1.7525   1.7630   1.8101   1.8124   1.8137   1.8196   1.8295   1.8317
     1.8402   1.8610   1.8657   1.8667   1.8709   1.8907   1.8916   1.8950
     1.8955   1.9030   1.9059   1.9201   1.9209   1.9344   1.9517   1.9543
     1.9625   1.9755   1.9862   1.9870   2.0445   2.0455   2.0538   2.0548
     2.0563   2.0566   2.0610   2.0625   2.0652   2.0750   2.0756   2.0776
     2.0888   2.0991   2.1002   2.1065   2.1065   2.1122   2.1156   2.1798
     2.1867   2.1877   2.1975   2.2663   2.2676   2.2684   2.2684   2.2694
     2.2718   2.2722   2.2832   2.2839   2.2862   2.3002   2.3107   2.3294
     2.3451   2.3456   2.3465   2.3526   2.3677   2.3691   2.3691   2.3700
     2.3708   2.3794   2.3937   2.3948   2.3979   2.4060   2.4064   2.4873
     2.5030   2.5250   2.5258   2.5526   2.5528   2.5539   2.5547   2.5846
     2.5847   2.5907   2.6045   2.6228   2.6252   2.6291   2.6303   2.6419
     2.6507   2.6662   2.6667   2.6673   2.6676   2.6727   2.6805   2.6985
     2.6999   2.7023   2.7078   2.7549   2.7550   2.7570   2.7575   2.7683
     2.7691   2.7903   2.7918   2.8193   2.8204   2.8285   2.8308   2.8539
     2.8540   2.8763   2.8808   2.8878   2.9003   2.9382   2.9398   2.9562
     2.9589   2.9602   2.9617   2.9801   2.9911   2.9912   2.9941   2.9948
     2.9970   2.9995   3.0173   3.0202   3.0204   3.0205   3.0211   3.0372
     3.0382   3.0395   3.0528   3.0534   3.0689   3.0703   3.0845   3.0846
     3.0855   3.0896   3.0949   3.1113   3.1248   3.1373   3.1376   3.1391
     3.1393   3.2298   3.2613   3.7682   3.7986   3.8041   3.8169   4.3010
     4.3489   4.3493   4.3495   4.3498   4.6152   4.6171   4.6183   4.6188
     4.9519   4.9673   4.9995   5.0956   5.1506   5.1621   5.1754   5.1764
     5.1840   5.4586   5.7962   6.0506   6.0708   6.1094   6.1111   6.1526
     6.1564   6.1755   6.2151   6.5985   6.6869   7.0673   7.1676   7.4609
     7.4645   7.4674   7.6533   7.8893   7.9792   8.2156   8.3287   8.4283
     8.5870   8.5941   8.5950   8.6267   8.9112   8.9493   8.9674   9.1997
     9.2377   9.2419   9.2571   9.2603   9.4522   9.6143   9.6289   9.7744
     9.8234   9.9067   9.9113   9.9273   9.9447  10.2881  10.2978  10.3812
    10.4245  10.4464  10.5272  10.5418  10.5662  10.8095  10.8555  11.0249
    11.0481  11.1475  11.2631  11.2842  11.3537  11.3818  11.4703  11.4897
    11.5428  11.6175  11.7287  12.0332  12.1371  12.1386  12.2758  12.2981
    12.3072  12.3337  12.4230  12.5700  12.7309  12.7898  12.8930  12.9573
    13.0013  13.0389  13.0671  13.1334  13.1463  13.2290  13.2549  13.2637
    13.2961  13.3111  13.3137  13.3678  13.5440  13.6295  13.7152  13.7163
    13.7830  13.8587

          k = 0.2500-0.7217 0.0000 ( 61343 PWs)   bands (ev):

  -107.7919-107.7886-107.7869-107.7863-107.7836-107.7834-107.7831-107.7824
  -107.7822-107.7817-107.7812-107.7810-107.7807-107.7801-107.7799-107.7794
  -107.7789-107.7785-107.7772-107.7765-107.7749-107.7736-107.7735-107.7729
  -107.7715-107.7712-107.7702-107.7692-107.7676-107.7669-107.7653-107.7643
  -107.7640-107.7635-107.7633-107.7615-107.5715-107.5690-107.5688-107.5664
  -107.5640-107.5638-107.5587-107.5564-107.5563-107.5296-107.5282-107.5280
  -107.5253-107.5251-107.5242-107.5241-107.5239-107.5236 -65.2414 -65.2373
   -65.2361 -65.2356 -65.2348 -65.2343 -65.2337 -65.2323 -65.2309 -65.2291
   -65.2287 -65.2278 -65.2251 -65.2236 -65.2229 -65.2224 -65.2223 -65.2199
   -65.2182 -65.2164 -65.2162 -65.2160 -65.2155 -65.2143 -65.2138 -65.2132
   -65.2123 -65.2118 -65.2096 -65.2087 -65.2053 -65.2038 -65.2035 -65.2025
   -65.2004 -65.2000 -65.1995 -65.1989 -65.1986 -65.1964 -65.1954 -65.1951
   -65.1946 -65.1937 -65.1930 -65.1926 -65.1913 -65.1896 -65.1892 -65.1888
   -65.1886 -65.1884 -65.1882 -65.1872 -65.1867 -65.1862 -65.1855 -65.1852
   -65.1845 -65.1834 -65.1830 -65.1829 -65.1827 -65.1821 -65.1807 -65.1798
   -65.1795 -65.1792 -65.1787 -65.1786 -65.1779 -65.1776 -65.1772 -65.1769
   -65.1767 -65.1760 -65.1755 -65.1748 -65.1745 -65.1738 -65.1736 -65.1727
   -65.1718 -65.1717 -65.1716 -65.1713 -65.1710 -65.1708 -65.1708 -65.1704
   -65.1689 -65.1683 -65.1680 -65.1664 -65.1658 -65.1655 -65.1652 -65.1649
   -65.1644 -65.1641 -65.1621 -65.1612 -65.1610 -65.1601 -65.1566 -65.1546
   -65.1545 -65.1508 -65.0351 -65.0333 -65.0311 -65.0238 -65.0210 -65.0184
   -65.0020 -65.0007 -64.9986 -64.9985 -64.9981 -64.9961 -64.9957 -64.9941
   -64.9909 -64.9902 -64.9891 -64.9885 -64.9853 -64.9851 -64.9835 -64.9797
   -64.9777 -64.9738 -64.9657 -64.9637 -64.9628 -64.9627 -64.9571 -64.9570
   -64.9562 -64.9561 -64.9511 -64.9496 -64.9487 -64.9485 -64.9450 -64.9450
   -64.9447 -64.9424 -64.9422 -64.9409 -64.9359 -64.9338 -64.9336 -64.9016
   -64.9003 -64.9001 -64.8976 -64.8973 -64.8966 -64.8965 -64.8961 -64.8959
   -12.8125 -10.0685 -10.0656  -6.4665  -6.4590  -4.4838  -3.4232  -2.8776
    -2.8212  -2.6174  -2.6169  -2.5616  -2.0536  -2.0491  -1.9842  -1.9306
    -1.8934  -1.2144  -1.1871  -0.9050  -0.6722  -0.6059  -0.6040  -0.2574
    -0.2559  -0.2202  -0.1903  -0.0208  -0.0152  -0.0148  -0.0074   0.0211
     0.1581   0.1598   0.1798   0.1801   0.1964   0.2460   0.2573   0.2575
     0.2754   0.3741   0.3768   0.3793   0.3797   0.4480   0.4570   0.5163
     0.5185   0.5295   0.5407   0.5695   0.5696   0.5717   0.5896   0.5913
     0.6523   0.6534   0.6844   0.6845   0.7147   0.7147   0.7422   0.7499
     0.7509   0.8140   0.8145   0.8441   0.8644   0.8788   0.8794   0.9492
     0.9544   1.0048   1.0242   1.0251   1.0497   1.0506   1.1103   1.1185
     1.1202   1.1362   1.1365   1.1468   1.1878   1.2137   1.2148   1.2581
     1.2590   1.2826   1.2857   1.2881   1.2907   1.3083   1.3086   1.3629
     1.3655   1.3691   1.3705   1.3754   1.3854   1.4046   1.4061   1.4156
     1.4183   1.4429   1.4463   1.4649   1.4680   1.4699   1.4881   1.5165
     1.5549   1.5588   1.5624   1.5646   1.5655   1.5923   1.6041   1.6139
     1.6163   1.6487   1.6533   1.6562   1.6580   1.6655   1.6878   1.7064
     1.7093   1.7192   1.7223   1.7242   1.7428   1.7600   1.7641   1.7655
     1.7674   1.7837   1.7889   1.8028   1.8037   1.8175   1.8227   1.8288
     1.8307   1.8519   1.8695   1.8766   1.8860   1.8910   1.8984   1.9033
     1.9068   1.9114   1.9217   1.9223   1.9269   1.9341   1.9363   1.9378
     1.9587   1.9597   1.9687   1.9812   1.9915   2.0033   2.0100   2.0133
     2.0258   2.0268   2.0287   2.0301   2.0328   2.0351   2.0370   2.0424
     2.0478   2.0651   2.1090   2.1120   2.1701   2.1703   2.1707   2.1770
     2.1812   2.1857   2.2041   2.2047   2.2282   2.2388   2.2406   2.2506
     2.2699   2.2711   2.3084   2.3100   2.3126   2.3415   2.3428   2.3437
     2.3444   2.3459   2.3477   2.3497   2.3539   2.3628   2.3808   2.3818
     2.4251   2.4279   2.4311   2.4320   2.4385   2.4440   2.4524   2.4751
     2.4803   2.4845   2.4974   2.5183   2.5201   2.5397   2.5475   2.5483
     2.5597   2.5636   2.5923   2.5997   2.6043   2.6091   2.6336   2.6359
     2.6561   2.6609   2.6612   2.6798   2.6830   2.7024   2.7054   2.7075
     2.7091   2.7141   2.7225   2.7239   2.7295   2.7366   2.7466   2.7645
     2.7962   2.7985   2.7998   2.8075   2.8504   2.8512   2.8639   2.8692
     2.8955   2.9071   2.9091   2.9153   2.9162   2.9249   2.9303   2.9592
     2.9614   2.9617   2.9695   2.9706   2.9796   2.9827   2.9844   2.9854
     2.9895   2.9929   2.9938   2.9952   2.9987   3.0115   3.0133   3.0261
     3.0272   3.0382   3.0384   3.0414   3.0506   3.0656   3.0712   3.0780
     3.0790   3.0956   3.1216   3.1227   3.1376   3.1579   3.1589   3.3178
     3.3293   3.4267   3.4269   3.5258   3.5271   3.6429   3.8492   3.8559
     4.2356   4.2608   4.3355   4.3366   4.3513   4.6110   4.7128   4.7309
     4.7421   4.7427   4.8967   5.1842   5.2122   5.2141   5.6630   5.6966
     5.7279   5.8149   5.9514   5.9624   5.9633   6.0968   6.1102   6.1836
     6.2654   6.6255   6.6960   6.7043   6.8712   6.9932   6.9980   7.0779
     7.0867   7.1977   7.2373   7.4122   7.6331   7.7544   7.9318   7.9719
     8.4608   8.5187   8.5208   8.6236   8.7461   8.9645   9.1520   9.1680
     9.2230   9.3240   9.3508   9.4864   9.5088   9.6341   9.6973   9.7316
     9.8083   9.9444  10.0160  10.1229  10.1790  10.3704  10.4258  10.4640
    10.5225  10.6252  10.7454  10.8440  10.8918  11.0425  11.0879  11.1951
    11.2249  11.2561  11.4661  11.5095  11.5211  11.6008  11.6178  11.7127
    11.7409  11.8415  11.8815  11.9026  11.9906  12.0964  12.1254  12.1775
    12.2935  12.3870  12.4468  12.4607  12.5410  12.5918  12.6106  12.6519
    12.7147  12.7722  12.8394  12.8502  12.9457  13.0362  13.1637  13.1968
    13.3042  13.3238  13.3824  13.4341  13.4916  13.5434  13.5678  13.6461
    13.6938  13.7026

          k =-0.2500 0.1443 0.0000 ( 61417 PWs)   bands (ev):

  -107.7921-107.7890-107.7861-107.7852-107.7844-107.7838-107.7831-107.7828
  -107.7821-107.7814-107.7814-107.7806-107.7806-107.7803-107.7800-107.7793
  -107.7793-107.7790-107.7765-107.7757-107.7752-107.7738-107.7738-107.7729
  -107.7713-107.7713-107.7702-107.7697-107.7671-107.7658-107.7657-107.7646
  -107.7644-107.7636-107.7630-107.7615-107.5717-107.5688-107.5686-107.5663
  -107.5640-107.5639-107.5587-107.5564-107.5563-107.5305-107.5275-107.5265
  -107.5264-107.5250-107.5249-107.5245-107.5234-107.5234 -65.2440 -65.2353
   -65.2343 -65.2332 -65.2323 -65.2320 -65.2313 -65.2308 -65.2284 -65.2282
   -65.2270 -65.2269 -65.2255 -65.2253 -65.2208 -65.2199 -65.2194 -65.2177
   -65.2168 -65.2161 -65.2155 -65.2154 -65.2152 -65.2147 -65.2131 -65.2131
   -65.2125 -65.2117 -65.2081 -65.2081 -65.2056 -65.2050 -65.2050 -65.2039
   -65.2037 -65.2029 -65.2024 -65.2020 -65.2002 -65.2000 -65.1979 -65.1978
   -65.1953 -65.1944 -65.1942 -65.1939 -65.1931 -65.1931 -65.1919 -65.1913
   -65.1905 -65.1898 -65.1891 -65.1884 -65.1881 -65.1874 -65.1868 -65.1864
   -65.1857 -65.1847 -65.1842 -65.1841 -65.1837 -65.1834 -65.1834 -65.1812
   -65.1808 -65.1792 -65.1791 -65.1783 -65.1781 -65.1771 -65.1767 -65.1765
   -65.1761 -65.1755 -65.1755 -65.1749 -65.1746 -65.1746 -65.1745 -65.1732
   -65.1729 -65.1717 -65.1713 -65.1704 -65.1698 -65.1697 -65.1692 -65.1691
   -65.1687 -65.1686 -65.1668 -65.1657 -65.1656 -65.1634 -65.1625 -65.1624
   -65.1624 -65.1612 -65.1607 -65.1588 -65.1587 -65.1579 -65.1555 -65.1548
   -65.1517 -65.1486 -65.0326 -65.0282 -65.0276 -65.0240 -65.0226 -65.0132
   -65.0127 -65.0075 -65.0070 -65.0025 -64.9967 -64.9911 -64.9909 -64.9909
   -64.9900 -64.9898 -64.9884 -64.9869 -64.9843 -64.9831 -64.9799 -64.9780
   -64.9778 -64.9748 -64.9723 -64.9721 -64.9719 -64.9693 -64.9539 -64.9537
   -64.9527 -64.9512 -64.9498 -64.9496 -64.9486 -64.9485 -64.9457 -64.9446
   -64.9424 -64.9423 -64.9419 -64.9387 -64.9359 -64.9338 -64.9337 -64.9024
   -64.8996 -64.8986 -64.8986 -64.8973 -64.8972 -64.8968 -64.8958 -64.8957
   -12.8133 -10.0662 -10.0637  -6.4676  -6.4593  -4.5110  -3.8431  -3.2299
    -2.9057  -2.5581  -2.2956  -2.2405  -1.9479  -1.9064  -1.6936  -1.5296
    -1.5287  -1.2145  -1.0508  -1.0463  -0.9118  -0.7324  -0.4726  -0.4722
    -0.3856  -0.3792  -0.2874  -0.2613  -0.1877  -0.1868  -0.0521  -0.0283
    -0.0143   0.0070   0.0362   0.0838   0.0878   0.0888   0.2601   0.2680
     0.2930   0.3586   0.3590   0.5406   0.5483   0.5797   0.5797   0.6017
     0.6158   0.6158   0.6374   0.6381   0.6818   0.6860   0.6875   0.6886
     0.6998   0.7002   0.7414   0.7414   0.7770   0.7771   0.8066   0.8067
     0.8108   0.8576   0.8589   0.8728   0.8728   0.8937   0.8943   0.9065
     0.9067   0.9368   0.9373   0.9822   1.0499   1.0499   1.0530   1.0795
     1.0795   1.0917   1.0931   1.1264   1.1268   1.1640   1.1662   1.1662
     1.2317   1.2317   1.2496   1.2554   1.2761   1.2767   1.3214   1.3224
     1.3366   1.3579   1.3604   1.3630   1.3895   1.4341   1.4358   1.4507
     1.4516   1.4613   1.4881   1.4971   1.5115   1.5320   1.5328   1.5421
     1.5696   1.5697   1.5973   1.6352   1.6541   1.6620   1.6622   1.6690
     1.6729   1.6763   1.6953   1.7113   1.7209   1.7305   1.7309   1.7471
     1.7472   1.7488   1.7695   1.7725   1.7747   1.7849   1.7927   1.7934
     1.8046   1.8136   1.8138   1.8224   1.8265   1.8412   1.8431   1.8470
     1.8482   1.8514   1.8615   1.8675   1.8770   1.8780   1.8891   1.8971
     1.9034   1.9102   1.9115   1.9320   1.9372   1.9457   1.9458   1.9641
     1.9684   1.9705   1.9845   1.9917   1.9919   1.9944   2.0042   2.0101
     2.0228   2.0334   2.0617   2.0626   2.0778   2.0782   2.0837   2.0850
     2.0912   2.1043   2.1070   2.1291   2.1332   2.1354   2.1454   2.1634
     2.1831   2.1888   2.2175   2.2258   2.2305   2.2311   2.2426   2.2438
     2.2917   2.3098   2.3349   2.3361   2.3425   2.3438   2.3571   2.3578
     2.3865   2.3882   2.3989   2.3996   2.4030   2.4056   2.4326   2.4335
     2.4665   2.4714   2.4759   2.4768   2.4842   2.5093   2.5125   2.5156
     2.5163   2.5202   2.5500   2.5618   2.5658   2.5704   2.5717   2.5881
     2.5929   2.5934   2.6111   2.6133   2.6148   2.6150   2.6253   2.6291
     2.6491   2.6577   2.6995   2.7050   2.7085   2.7356   2.7378   2.7472
     2.7501   2.7511   2.7517   2.7554   2.7725   2.7736   2.7744   2.7874
     2.7913   2.7920   2.7959   2.8089   2.8325   2.8424   2.8425   2.8453
     2.8557   2.8569   2.8744   2.8765   2.8835   2.8852   2.9312   2.9314
     2.9320   2.9357   2.9358   2.9448   2.9538   2.9551   2.9586   2.9634
     2.9658   2.9660   2.9719   2.9721   2.9766   2.9815   2.9895   2.9909
     3.0087   3.0201   3.0202   3.0212   3.0232   3.0274   3.0286   3.0291
     3.0513   3.0597   3.0708   3.0726   3.0758   3.0768   3.0901   3.0916
     3.1518   3.1816   3.2288   3.3107   3.3363   3.3368   3.4202   3.4967
     3.4970   3.7499   3.7979   3.8022   3.8071   3.8333   4.1132   4.3297
     4.5037   4.7728   4.7767   5.0006   5.0870   5.0997   5.1285   5.8646
     5.8651   6.0833   6.2056   6.2394   6.2605   6.2612   6.4940   6.7205
     6.8050   6.9088   6.9394   7.1710   7.2075   7.3584   7.4950   7.7614
     7.7936   7.8066   7.9757   8.0558   8.2530   8.2660   8.2849   8.4091
     8.4271   8.7297   8.7340   8.7514   8.8738   8.9581   9.2794   9.2831
     9.3169   9.4313   9.5714   9.6733   9.7954   9.8296   9.9161   9.9615
    10.0159  10.0278  10.0682  10.1507  10.2628  10.4217  10.4340  10.4524
    10.5345  10.5616  10.6151  10.6774  10.7276  10.7847  10.7943  10.8848
    10.9489  10.9657  10.9841  11.0219  11.0993  11.2549  11.4506  11.4635
    11.5098  11.5212  11.5895  11.6154  11.7080  11.7742  11.9378  11.9440
    12.0565  12.1768  12.2365  12.3190  12.3608  12.4187  12.4809  12.4957
    12.5460  12.5930  12.6637  12.7124  12.8253  12.8396  12.8742  12.8836
    12.9662  13.0376  13.1304  13.1475  13.2002  13.2471  13.2754  13.3930
    13.3986  13.4381

          k = 0.2500 0.1443 0.0000 ( 61417 PWs)   bands (ev):

  -107.7921-107.7890-107.7861-107.7852-107.7844-107.7838-107.7831-107.7828
  -107.7821-107.7814-107.7814-107.7806-107.7806-107.7803-107.7800-107.7793
  -107.7793-107.7790-107.7765-107.7757-107.7752-107.7738-107.7738-107.7729
  -107.7713-107.7713-107.7702-107.7697-107.7671-107.7658-107.7657-107.7646
  -107.7644-107.7636-107.7630-107.7615-107.5717-107.5688-107.5686-107.5663
  -107.5640-107.5639-107.5587-107.5564-107.5563-107.5305-107.5275-107.5265
  -107.5264-107.5250-107.5249-107.5245-107.5234-107.5234 -65.2440 -65.2353
   -65.2343 -65.2332 -65.2323 -65.2320 -65.2313 -65.2308 -65.2284 -65.2282
   -65.2270 -65.2269 -65.2255 -65.2253 -65.2208 -65.2199 -65.2194 -65.2177
   -65.2168 -65.2161 -65.2155 -65.2154 -65.2152 -65.2147 -65.2131 -65.2131
   -65.2125 -65.2117 -65.2081 -65.2081 -65.2056 -65.2050 -65.2050 -65.2039
   -65.2037 -65.2029 -65.2024 -65.2020 -65.2002 -65.2000 -65.1979 -65.1978
   -65.1953 -65.1944 -65.1942 -65.1939 -65.1931 -65.1931 -65.1919 -65.1913
   -65.1905 -65.1898 -65.1891 -65.1884 -65.1881 -65.1874 -65.1868 -65.1864
   -65.1857 -65.1847 -65.1842 -65.1841 -65.1837 -65.1834 -65.1834 -65.1812
   -65.1808 -65.1792 -65.1791 -65.1783 -65.1781 -65.1771 -65.1767 -65.1765
   -65.1761 -65.1755 -65.1755 -65.1749 -65.1746 -65.1746 -65.1745 -65.1732
   -65.1729 -65.1717 -65.1713 -65.1704 -65.1698 -65.1697 -65.1692 -65.1691
   -65.1687 -65.1686 -65.1668 -65.1657 -65.1656 -65.1634 -65.1625 -65.1624
   -65.1624 -65.1612 -65.1607 -65.1588 -65.1587 -65.1579 -65.1555 -65.1548
   -65.1517 -65.1486 -65.0326 -65.0282 -65.0276 -65.0240 -65.0226 -65.0132
   -65.0127 -65.0075 -65.0070 -65.0025 -64.9967 -64.9911 -64.9909 -64.9909
   -64.9900 -64.9898 -64.9884 -64.9869 -64.9843 -64.9831 -64.9799 -64.9780
   -64.9778 -64.9748 -64.9723 -64.9721 -64.9719 -64.9693 -64.9539 -64.9537
   -64.9527 -64.9512 -64.9498 -64.9496 -64.9486 -64.9485 -64.9457 -64.9446
   -64.9424 -64.9423 -64.9419 -64.9387 -64.9359 -64.9338 -64.9337 -64.9024
   -64.8996 -64.8986 -64.8986 -64.8973 -64.8972 -64.8968 -64.8958 -64.8957
   -12.8133 -10.0663 -10.0636  -6.4675  -6.4594  -4.5110  -3.8431  -3.2299
    -2.9057  -2.5581  -2.2956  -2.2405  -1.9480  -1.9063  -1.6936  -1.5296
    -1.5287  -1.2145  -1.0508  -1.0463  -0.9118  -0.7324  -0.4726  -0.4722
    -0.3856  -0.3792  -0.2874  -0.2613  -0.1877  -0.1868  -0.0521  -0.0284
    -0.0143   0.0069   0.0363   0.0838   0.0878   0.0888   0.2601   0.2680
     0.2930   0.3586   0.3590   0.5406   0.5483   0.5797   0.5797   0.6017
     0.6158   0.6158   0.6374   0.6381   0.6818   0.6860   0.6875   0.6886
     0.6998   0.7002   0.7414   0.7414   0.7770   0.7771   0.8066   0.8067
     0.8108   0.8576   0.8589   0.8728   0.8728   0.8937   0.8943   0.9065
     0.9067   0.9368   0.9373   0.9822   1.0499   1.0499   1.0530   1.0795
     1.0795   1.0917   1.0931   1.1264   1.1268   1.1640   1.1662   1.1662
     1.2317   1.2317   1.2496   1.2554   1.2761   1.2767   1.3214   1.3224
     1.3366   1.3579   1.3604   1.3630   1.3895   1.4341   1.4358   1.4507
     1.4516   1.4613   1.4881   1.4971   1.5115   1.5320   1.5328   1.5421
     1.5696   1.5697   1.5973   1.6352   1.6541   1.6620   1.6622   1.6690
     1.6729   1.6763   1.6953   1.7113   1.7209   1.7305   1.7309   1.7471
     1.7472   1.7488   1.7695   1.7724   1.7747   1.7849   1.7927   1.7934
     1.8046   1.8136   1.8138   1.8224   1.8265   1.8412   1.8431   1.8470
     1.8482   1.8514   1.8615   1.8675   1.8770   1.8780   1.8891   1.8971
     1.9034   1.9102   1.9115   1.9320   1.9372   1.9457   1.9458   1.9641
     1.9684   1.9705   1.9845   1.9917   1.9919   1.9944   2.0042   2.0101
     2.0228   2.0334   2.0617   2.0626   2.0778   2.0782   2.0837   2.0850
     2.0912   2.1043   2.1070   2.1291   2.1332   2.1354   2.1454   2.1634
     2.1831   2.1888   2.2175   2.2258   2.2305   2.2311   2.2426   2.2438
     2.2917   2.3098   2.3349   2.3361   2.3425   2.3438   2.3571   2.3578
     2.3865   2.3882   2.3989   2.3996   2.4030   2.4056   2.4326   2.4335
     2.4665   2.4714   2.4759   2.4768   2.4842   2.5093   2.5125   2.5156
     2.5163   2.5202   2.5500   2.5618   2.5658   2.5704   2.5717   2.5881
     2.5929   2.5934   2.6111   2.6133   2.6148   2.6150   2.6253   2.6291
     2.6491   2.6577   2.6995   2.7050   2.7085   2.7356   2.7378   2.7472
     2.7501   2.7511   2.7517   2.7554   2.7725   2.7736   2.7744   2.7874
     2.7913   2.7920   2.7959   2.8089   2.8325   2.8424   2.8425   2.8453
     2.8557   2.8569   2.8744   2.8765   2.8835   2.8852   2.9312   2.9314
     2.9320   2.9357   2.9358   2.9448   2.9538   2.9551   2.9586   2.9634
     2.9658   2.9660   2.9719   2.9721   2.9766   2.9815   2.9895   2.9909
     3.0087   3.0201   3.0202   3.0212   3.0232   3.0274   3.0286   3.0291
     3.0513   3.0597   3.0708   3.0726   3.0758   3.0768   3.0901   3.0916
     3.1518   3.1816   3.2288   3.3107   3.3363   3.3368   3.4202   3.4967
     3.4970   3.7499   3.7979   3.8022   3.8071   3.8333   4.1132   4.3297
     4.5037   4.7728   4.7767   5.0006   5.0870   5.0997   5.1285   5.8646
     5.8651   6.0833   6.2056   6.2394   6.2605   6.2612   6.4940   6.7205
     6.8050   6.9088   6.9394   7.1711   7.2075   7.3584   7.4950   7.7614
     7.7936   7.8066   7.9757   8.0558   8.2530   8.2660   8.2850   8.4091
     8.4271   8.7297   8.7340   8.7514   8.8738   8.9582   9.2794   9.2831
     9.3169   9.4313   9.5713   9.6733   9.7954   9.8296   9.9161   9.9615
    10.0159  10.0278  10.0682  10.1507  10.2628  10.4217  10.4340  10.4524
    10.5345  10.5616  10.6151  10.6774  10.7276  10.7847  10.7943  10.8848
    10.9489  10.9657  10.9841  11.0219  11.0993  11.2549  11.4506  11.4635
    11.5098  11.5212  11.5895  11.6154  11.7080  11.7742  11.9378  11.9439
    12.0565  12.1768  12.2365  12.3190  12.3608  12.4187  12.4809  12.4957
    12.5460  12.5930  12.6637  12.7124  12.8253  12.8396  12.8742  12.8836
    12.9662  13.0376  13.1304  13.1475  13.2002  13.2471  13.2754  13.3930
    13.3986  13.4381

          k = 0.5000-0.2887 0.0000 ( 61408 PWs)   bands (ev):

  -107.7919-107.7886-107.7872-107.7855-107.7846-107.7834-107.7827-107.7823
  -107.7820-107.7815-107.7812-107.7811-107.7809-107.7803-107.7797-107.7794
  -107.7789-107.7785-107.7775-107.7758-107.7754-107.7735-107.7735-107.7728
  -107.7714-107.7713-107.7702-107.7691-107.7679-107.7661-107.7659-107.7644
  -107.7636-107.7636-107.7634-107.7615-107.5715-107.5691-107.5686-107.5664
  -107.5640-107.5638-107.5587-107.5564-107.5563-107.5293-107.5291-107.5267
  -107.5266-107.5243-107.5243-107.5241-107.5239-107.5238 -65.2407 -65.2396
   -65.2373 -65.2360 -65.2327 -65.2322 -65.2311 -65.2308 -65.2299 -65.2296
   -65.2292 -65.2290 -65.2287 -65.2279 -65.2248 -65.2193 -65.2181 -65.2180
   -65.2177 -65.2174 -65.2169 -65.2167 -65.2162 -65.2160 -65.2138 -65.2135
   -65.2130 -65.2123 -65.2066 -65.2059 -65.2052 -65.2049 -65.2044 -65.2038
   -65.2027 -65.1993 -65.1991 -65.1973 -65.1957 -65.1956 -65.1955 -65.1951
   -65.1948 -65.1936 -65.1927 -65.1926 -65.1921 -65.1911 -65.1911 -65.1904
   -65.1883 -65.1882 -65.1879 -65.1877 -65.1875 -65.1871 -65.1861 -65.1854
   -65.1833 -65.1825 -65.1821 -65.1817 -65.1814 -65.1810 -65.1809 -65.1808
   -65.1807 -65.1806 -65.1802 -65.1791 -65.1778 -65.1778 -65.1772 -65.1766
   -65.1764 -65.1761 -65.1747 -65.1741 -65.1737 -65.1735 -65.1734 -65.1728
   -65.1722 -65.1722 -65.1711 -65.1706 -65.1705 -65.1701 -65.1699 -65.1698
   -65.1695 -65.1690 -65.1688 -65.1664 -65.1662 -65.1659 -65.1657 -65.1650
   -65.1631 -65.1626 -65.1620 -65.1620 -65.1602 -65.1597 -65.1587 -65.1580
   -65.1516 -65.1508 -65.0365 -65.0304 -65.0299 -65.0265 -65.0250 -65.0096
   -65.0089 -65.0009 -64.9997 -64.9977 -64.9961 -64.9949 -64.9932 -64.9930
   -64.9929 -64.9927 -64.9911 -64.9881 -64.9870 -64.9841 -64.9814 -64.9778
   -64.9744 -64.9742 -64.9733 -64.9620 -64.9619 -64.9619 -64.9616 -64.9538
   -64.9536 -64.9534 -64.9511 -64.9508 -64.9506 -64.9487 -64.9485 -64.9447
   -64.9423 -64.9422 -64.9418 -64.9415 -64.9359 -64.9338 -64.9337 -64.9014
   -64.9011 -64.8988 -64.8988 -64.8967 -64.8966 -64.8964 -64.8961 -64.8961
   -12.8125 -10.0697 -10.0644  -6.4708  -6.4547  -4.4836  -3.2178  -3.2175
    -2.8778  -2.6235  -2.6218  -2.5619  -2.0023  -1.9141  -1.7303  -1.7057
    -1.6849  -1.6841  -1.1822  -1.1759  -0.8724  -0.6522  -0.5513  -0.4567
    -0.4339  -0.0719  -0.0447   0.0374   0.1062   0.1120   0.1317   0.1317
     0.1320   0.1331   0.1342   0.2189   0.2864   0.2960   0.2995   0.3076
     0.3109   0.3299   0.3300   0.3303   0.3305   0.3848   0.3850   0.3855
     0.3855   0.5133   0.5484   0.5485   0.5500   0.5500   0.5832   0.6293
     0.7279   0.7281   0.7284   0.7286   0.7389   0.7614   0.7661   0.7789
     0.7790   0.7808   0.7809   0.9015   0.9017   0.9022   0.9023   0.9238
     0.9254   1.0096   1.0204   1.0207   1.0229   1.0231   1.0622   1.0624
     1.1057   1.1060   1.1715   1.1720   1.1742   1.1746   1.2364   1.2368
     1.2671   1.2687   1.2823   1.2827   1.2857   1.2866   1.3067   1.3069
     1.3297   1.3430   1.3889   1.4060   1.4079   1.4336   1.4354   1.4465
     1.4541   1.4623   1.4630   1.4642   1.4642   1.5160   1.5222   1.5228
     1.5228   1.5244   1.5251   1.5713   1.5809   1.5854   1.5970   1.6000
     1.6004   1.6075   1.6076   1.6078   1.6239   1.6630   1.6890   1.6973
     1.6984   1.7005   1.7124   1.7450   1.7474   1.7484   1.7488   1.7493
     1.7525   1.7630   1.8102   1.8124   1.8137   1.8196   1.8295   1.8317
     1.8403   1.8610   1.8657   1.8667   1.8709   1.8906   1.8916   1.8950
     1.8955   1.9030   1.9059   1.9201   1.9209   1.9344   1.9517   1.9543
     1.9624   1.9755   1.9862   1.9870   2.0444   2.0455   2.0538   2.0548
     2.0563   2.0566   2.0610   2.0625   2.0652   2.0750   2.0756   2.0776
     2.0888   2.0991   2.1002   2.1065   2.1066   2.1122   2.1156   2.1798
     2.1867   2.1877   2.1975   2.2663   2.2676   2.2684   2.2684   2.2694
     2.2718   2.2722   2.2832   2.2839   2.2862   2.3002   2.3107   2.3294
     2.3451   2.3456   2.3465   2.3526   2.3677   2.3691   2.3691   2.3700
     2.3708   2.3794   2.3937   2.3948   2.3979   2.4060   2.4064   2.4873
     2.5030   2.5250   2.5258   2.5526   2.5528   2.5539   2.5547   2.5846
     2.5847   2.5907   2.6045   2.6228   2.6252   2.6291   2.6303   2.6419
     2.6507   2.6662   2.6667   2.6673   2.6676   2.6727   2.6805   2.6986
     2.6999   2.7023   2.7078   2.7549   2.7550   2.7570   2.7575   2.7683
     2.7691   2.7903   2.7918   2.8193   2.8204   2.8284   2.8308   2.8539
     2.8540   2.8763   2.8808   2.8878   2.9003   2.9382   2.9398   2.9562
     2.9589   2.9602   2.9617   2.9801   2.9911   2.9912   2.9941   2.9948
     2.9970   2.9995   3.0173   3.0202   3.0204   3.0205   3.0211   3.0372
     3.0382   3.0395   3.0528   3.0534   3.0689   3.0703   3.0845   3.0846
     3.0855   3.0896   3.0949   3.1113   3.1248   3.1373   3.1376   3.1391
     3.1393   3.2298   3.2613   3.7682   3.7986   3.8041   3.8169   4.3010
     4.3489   4.3493   4.3495   4.3498   4.6152   4.6171   4.6183   4.6188
     4.9519   4.9673   4.9995   5.0956   5.1506   5.1621   5.1754   5.1764
     5.1840   5.4586   5.7962   6.0506   6.0708   6.1094   6.1111   6.1526
     6.1564   6.1755   6.2151   6.5985   6.6869   7.0674   7.1675   7.4608
     7.4645   7.4674   7.6533   7.8894   7.9791   8.2156   8.3287   8.4282
     8.5870   8.5941   8.5950   8.6267   8.9112   8.9493   8.9674   9.1997
     9.2377   9.2419   9.2571   9.2602   9.4523   9.6144   9.6290   9.7744
     9.8234   9.9067   9.9113   9.9273   9.9447  10.2881  10.2978  10.3812
    10.4245  10.4464  10.5272  10.5418  10.5662  10.8095  10.8554  11.0249
    11.0481  11.1475  11.2630  11.2842  11.3537  11.3817  11.4704  11.4898
    11.5429  11.6176  11.7287  12.0331  12.1372  12.1386  12.2758  12.2982
    12.3073  12.3337  12.4233  12.5699  12.7311  12.7897  12.8930  12.9573
    13.0013  13.0388  13.0671  13.1333  13.1462  13.2289  13.2549  13.2637
    13.2961  13.3111  13.3137  13.3678  13.5441  13.6295  13.7150  13.7163
    13.7830  13.8587

          k =-0.5000-0.2887 0.0000 ( 61408 PWs)   bands (ev):

  -107.7919-107.7886-107.7872-107.7855-107.7846-107.7834-107.7827-107.7823
  -107.7820-107.7815-107.7812-107.7811-107.7809-107.7803-107.7797-107.7794
  -107.7789-107.7785-107.7775-107.7758-107.7754-107.7735-107.7735-107.7728
  -107.7714-107.7713-107.7702-107.7691-107.7679-107.7661-107.7659-107.7644
  -107.7636-107.7636-107.7634-107.7615-107.5715-107.5691-107.5686-107.5664
  -107.5640-107.5638-107.5587-107.5564-107.5563-107.5293-107.5291-107.5267
  -107.5266-107.5243-107.5243-107.5241-107.5239-107.5238 -65.2407 -65.2396
   -65.2373 -65.2360 -65.2327 -65.2322 -65.2311 -65.2308 -65.2299 -65.2296
   -65.2292 -65.2290 -65.2287 -65.2279 -65.2248 -65.2193 -65.2181 -65.2180
   -65.2177 -65.2174 -65.2169 -65.2167 -65.2162 -65.2160 -65.2138 -65.2135
   -65.2130 -65.2123 -65.2066 -65.2059 -65.2052 -65.2049 -65.2044 -65.2038
   -65.2027 -65.1993 -65.1991 -65.1973 -65.1957 -65.1956 -65.1955 -65.1951
   -65.1948 -65.1936 -65.1927 -65.1926 -65.1921 -65.1911 -65.1911 -65.1904
   -65.1883 -65.1882 -65.1879 -65.1877 -65.1875 -65.1871 -65.1861 -65.1854
   -65.1833 -65.1825 -65.1821 -65.1817 -65.1814 -65.1810 -65.1809 -65.1808
   -65.1807 -65.1806 -65.1802 -65.1791 -65.1778 -65.1778 -65.1772 -65.1766
   -65.1764 -65.1761 -65.1747 -65.1741 -65.1737 -65.1735 -65.1734 -65.1728
   -65.1722 -65.1722 -65.1711 -65.1706 -65.1705 -65.1701 -65.1699 -65.1698
   -65.1695 -65.1690 -65.1688 -65.1664 -65.1662 -65.1659 -65.1657 -65.1650
   -65.1631 -65.1626 -65.1620 -65.1620 -65.1602 -65.1597 -65.1587 -65.1580
   -65.1516 -65.1508 -65.0365 -65.0304 -65.0299 -65.0265 -65.0250 -65.0096
   -65.0089 -65.0009 -64.9997 -64.9977 -64.9961 -64.9949 -64.9932 -64.9930
   -64.9929 -64.9927 -64.9911 -64.9881 -64.9870 -64.9841 -64.9814 -64.9778
   -64.9744 -64.9742 -64.9733 -64.9620 -64.9619 -64.9619 -64.9616 -64.9538
   -64.9536 -64.9534 -64.9511 -64.9508 -64.9506 -64.9487 -64.9485 -64.9447
   -64.9423 -64.9422 -64.9418 -64.9415 -64.9359 -64.9338 -64.9337 -64.9014
   -64.9011 -64.8988 -64.8988 -64.8967 -64.8966 -64.8964 -64.8961 -64.8961
   -12.8125 -10.0698 -10.0644  -6.4708  -6.4548  -4.4836  -3.2178  -3.2175
    -2.8778  -2.6235  -2.6218  -2.5619  -2.0024  -1.9140  -1.7303  -1.7057
    -1.6849  -1.6841  -1.1822  -1.1759  -0.8724  -0.6522  -0.5513  -0.4567
    -0.4339  -0.0719  -0.0448   0.0375   0.1062   0.1120   0.1317   0.1317
     0.1320   0.1331   0.1342   0.2189   0.2864   0.2960   0.2995   0.3076
     0.3109   0.3299   0.3300   0.3303   0.3305   0.3848   0.3850   0.3855
     0.3855   0.5133   0.5484   0.5485   0.5500   0.5500   0.5832   0.6293
     0.7279   0.7281   0.7284   0.7286   0.7389   0.7614   0.7661   0.7789
     0.7790   0.7808   0.7809   0.9015   0.9017   0.9022   0.9023   0.9238
     0.9254   1.0096   1.0204   1.0207   1.0229   1.0231   1.0622   1.0624
     1.1057   1.1060   1.1715   1.1720   1.1742   1.1746   1.2364   1.2368
     1.2671   1.2687   1.2823   1.2827   1.2857   1.2866   1.3067   1.3069
     1.3297   1.3430   1.3889   1.4060   1.4079   1.4336   1.4354   1.4465
     1.4541   1.4623   1.4630   1.4642   1.4642   1.5160   1.5222   1.5228
     1.5228   1.5244   1.5251   1.5713   1.5809   1.5854   1.5970   1.6000
     1.6004   1.6075   1.6076   1.6078   1.6239   1.6630   1.6890   1.6973
     1.6984   1.7005   1.7124   1.7450   1.7474   1.7484   1.7488   1.7493
     1.7525   1.7630   1.8102   1.8124   1.8137   1.8196   1.8295   1.8317
     1.8403   1.8610   1.8657   1.8667   1.8709   1.8906   1.8916   1.8950
     1.8955   1.9030   1.9059   1.9201   1.9209   1.9344   1.9517   1.9543
     1.9625   1.9755   1.9862   1.9870   2.0444   2.0455   2.0538   2.0548
     2.0563   2.0566   2.0610   2.0625   2.0652   2.0750   2.0756   2.0776
     2.0888   2.0991   2.1002   2.1065   2.1065   2.1122   2.1156   2.1798
     2.1867   2.1877   2.1975   2.2663   2.2676   2.2684   2.2684   2.2694
     2.2718   2.2722   2.2832   2.2839   2.2862   2.3002   2.3107   2.3294
     2.3451   2.3456   2.3465   2.3526   2.3677   2.3691   2.3691   2.3700
     2.3708   2.3794   2.3937   2.3948   2.3979   2.4060   2.4064   2.4873
     2.5030   2.5250   2.5258   2.5526   2.5528   2.5539   2.5547   2.5846
     2.5847   2.5907   2.6045   2.6228   2.6252   2.6291   2.6303   2.6419
     2.6507   2.6662   2.6667   2.6673   2.6676   2.6727   2.6805   2.6985
     2.6999   2.7023   2.7078   2.7549   2.7550   2.7570   2.7575   2.7683
     2.7691   2.7903   2.7918   2.8193   2.8204   2.8284   2.8308   2.8539
     2.8540   2.8763   2.8808   2.8878   2.9003   2.9382   2.9398   2.9562
     2.9589   2.9602   2.9617   2.9801   2.9911   2.9912   2.9941   2.9948
     2.9970   2.9995   3.0173   3.0202   3.0204   3.0205   3.0211   3.0372
     3.0382   3.0395   3.0528   3.0534   3.0689   3.0703   3.0845   3.0846
     3.0855   3.0896   3.0949   3.1113   3.1248   3.1373   3.1376   3.1391
     3.1393   3.2298   3.2613   3.7682   3.7986   3.8041   3.8169   4.3010
     4.3489   4.3493   4.3495   4.3498   4.6152   4.6171   4.6183   4.6188
     4.9519   4.9673   4.9995   5.0956   5.1506   5.1621   5.1754   5.1764
     5.1840   5.4586   5.7962   6.0506   6.0708   6.1094   6.1111   6.1526
     6.1564   6.1755   6.2151   6.5985   6.6869   7.0674   7.1675   7.4608
     7.4645   7.4674   7.6533   7.8894   7.9791   8.2156   8.3287   8.4282
     8.5870   8.5941   8.5950   8.6267   8.9112   8.9493   8.9674   9.1997
     9.2377   9.2419   9.2571   9.2602   9.4523   9.6143   9.6290   9.7744
     9.8234   9.9067   9.9113   9.9273   9.9447  10.2881  10.2978  10.3812
    10.4245  10.4464  10.5272  10.5418  10.5662  10.8095  10.8554  11.0249
    11.0481  11.1475  11.2630  11.2842  11.3537  11.3817  11.4704  11.4898
    11.5429  11.6176  11.7287  12.0331  12.1372  12.1386  12.2758  12.2981
    12.3073  12.3337  12.4232  12.5699  12.7311  12.7898  12.8930  12.9573
    13.0013  13.0388  13.0671  13.1333  13.1462  13.2289  13.2549  13.2637
    13.2961  13.3111  13.3137  13.3678  13.5441  13.6295  13.7150  13.7162
    13.7830  13.8587

          k =-0.2500-0.7217 0.0000 ( 61343 PWs)   bands (ev):

  -107.7919-107.7886-107.7869-107.7863-107.7836-107.7834-107.7831-107.7824
  -107.7822-107.7817-107.7812-107.7810-107.7807-107.7801-107.7799-107.7794
  -107.7789-107.7785-107.7772-107.7765-107.7749-107.7736-107.7735-107.7729
  -107.7715-107.7712-107.7702-107.7692-107.7676-107.7669-107.7653-107.7643
  -107.7640-107.7635-107.7633-107.7615-107.5715-107.5690-107.5688-107.5664
  -107.5640-107.5638-107.5587-107.5564-107.5563-107.5296-107.5282-107.5280
  -107.5253-107.5251-107.5242-107.5241-107.5239-107.5236 -65.2414 -65.2373
   -65.2361 -65.2356 -65.2348 -65.2343 -65.2337 -65.2323 -65.2309 -65.2291
   -65.2287 -65.2278 -65.2251 -65.2236 -65.2229 -65.2224 -65.2223 -65.2199
   -65.2182 -65.2164 -65.2162 -65.2160 -65.2155 -65.2143 -65.2138 -65.2132
   -65.2123 -65.2118 -65.2096 -65.2087 -65.2053 -65.2038 -65.2035 -65.2025
   -65.2004 -65.2000 -65.1995 -65.1989 -65.1986 -65.1964 -65.1954 -65.1951
   -65.1946 -65.1937 -65.1930 -65.1926 -65.1913 -65.1896 -65.1892 -65.1888
   -65.1886 -65.1884 -65.1882 -65.1872 -65.1867 -65.1862 -65.1855 -65.1852
   -65.1845 -65.1834 -65.1830 -65.1829 -65.1827 -65.1821 -65.1807 -65.1798
   -65.1795 -65.1792 -65.1787 -65.1786 -65.1779 -65.1776 -65.1772 -65.1769
   -65.1767 -65.1760 -65.1755 -65.1748 -65.1745 -65.1738 -65.1736 -65.1727
   -65.1718 -65.1717 -65.1716 -65.1713 -65.1710 -65.1708 -65.1708 -65.1704
   -65.1689 -65.1683 -65.1680 -65.1664 -65.1658 -65.1655 -65.1652 -65.1649
   -65.1644 -65.1641 -65.1621 -65.1612 -65.1610 -65.1601 -65.1566 -65.1546
   -65.1545 -65.1508 -65.0351 -65.0333 -65.0311 -65.0238 -65.0210 -65.0184
   -65.0020 -65.0007 -64.9986 -64.9985 -64.9981 -64.9961 -64.9957 -64.9941
   -64.9909 -64.9902 -64.9891 -64.9885 -64.9853 -64.9851 -64.9835 -64.9797
   -64.9777 -64.9738 -64.9657 -64.9637 -64.9628 -64.9627 -64.9571 -64.9570
   -64.9562 -64.9561 -64.9511 -64.9496 -64.9487 -64.9485 -64.9450 -64.9450
   -64.9447 -64.9424 -64.9422 -64.9409 -64.9359 -64.9338 -64.9336 -64.9016
   -64.9003 -64.9001 -64.8976 -64.8973 -64.8966 -64.8965 -64.8961 -64.8959
   -12.8125 -10.0685 -10.0657  -6.4666  -6.4589  -4.4838  -3.4232  -2.8776
    -2.8212  -2.6174  -2.6169  -2.5616  -2.0536  -2.0491  -1.9841  -1.9307
    -1.8934  -1.2144  -1.1871  -0.9050  -0.6722  -0.6059  -0.6040  -0.2574
    -0.2559  -0.2202  -0.1903  -0.0207  -0.0152  -0.0148  -0.0074   0.0210
     0.1581   0.1598   0.1798   0.1801   0.1964   0.2460   0.2573   0.2575
     0.2754   0.3741   0.3768   0.3793   0.3797   0.4480   0.4570   0.5163
     0.5185   0.5295   0.5407   0.5695   0.5696   0.5717   0.5896   0.5913
     0.6523   0.6534   0.6844   0.6845   0.7147   0.7147   0.7422   0.7499
     0.7509   0.8140   0.8145   0.8441   0.8644   0.8788   0.8794   0.9492
     0.9544   1.0048   1.0242   1.0251   1.0497   1.0506   1.1103   1.1185
     1.1202   1.1362   1.1365   1.1468   1.1878   1.2137   1.2148   1.2581
     1.2590   1.2826   1.2857   1.2881   1.2907   1.3083   1.3086   1.3629
     1.3655   1.3691   1.3705   1.3754   1.3854   1.4046   1.4061   1.4156
     1.4183   1.4429   1.4464   1.4649   1.4680   1.4699   1.4881   1.5165
     1.5549   1.5588   1.5624   1.5646   1.5655   1.5923   1.6041   1.6139
     1.6163   1.6487   1.6533   1.6562   1.6580   1.6655   1.6878   1.7064
     1.7093   1.7192   1.7223   1.7242   1.7428   1.7600   1.7641   1.7655
     1.7674   1.7837   1.7889   1.8028   1.8037   1.8175   1.8227   1.8288
     1.8307   1.8519   1.8695   1.8766   1.8860   1.8910   1.8984   1.9033
     1.9068   1.9114   1.9217   1.9223   1.9269   1.9341   1.9363   1.9378
     1.9587   1.9597   1.9687   1.9812   1.9915   2.0033   2.0100   2.0133
     2.0258   2.0268   2.0287   2.0301   2.0328   2.0351   2.0370   2.0424
     2.0478   2.0651   2.1090   2.1120   2.1701   2.1703   2.1707   2.1770
     2.1812   2.1857   2.2041   2.2047   2.2282   2.2388   2.2406   2.2506
     2.2699   2.2711   2.3084   2.3100   2.3126   2.3415   2.3428   2.3437
     2.3444   2.3459   2.3477   2.3497   2.3539   2.3628   2.3808   2.3818
     2.4251   2.4279   2.4311   2.4320   2.4385   2.4440   2.4524   2.4751
     2.4803   2.4845   2.4974   2.5183   2.5201   2.5397   2.5475   2.5483
     2.5597   2.5636   2.5923   2.5997   2.6043   2.6091   2.6336   2.6359
     2.6561   2.6609   2.6612   2.6798   2.6830   2.7024   2.7054   2.7075
     2.7091   2.7141   2.7225   2.7239   2.7295   2.7366   2.7466   2.7645
     2.7962   2.7985   2.7998   2.8075   2.8504   2.8512   2.8639   2.8692
     2.8955   2.9071   2.9091   2.9153   2.9162   2.9249   2.9303   2.9592
     2.9614   2.9617   2.9695   2.9706   2.9796   2.9827   2.9844   2.9854
     2.9895   2.9929   2.9938   2.9952   2.9987   3.0115   3.0133   3.0261
     3.0272   3.0382   3.0384   3.0414   3.0506   3.0656   3.0712   3.0780
     3.0790   3.0956   3.1216   3.1227   3.1376   3.1579   3.1589   3.3178
     3.3293   3.4267   3.4269   3.5258   3.5271   3.6429   3.8492   3.8559
     4.2356   4.2608   4.3355   4.3366   4.3513   4.6110   4.7128   4.7309
     4.7421   4.7427   4.8967   5.1842   5.2122   5.2141   5.6630   5.6966
     5.7279   5.8149   5.9514   5.9624   5.9633   6.0968   6.1102   6.1836
     6.2654   6.6255   6.6960   6.7044   6.8712   6.9932   6.9980   7.0779
     7.0867   7.1977   7.2373   7.4122   7.6331   7.7544   7.9318   7.9719
     8.4608   8.5187   8.5208   8.6236   8.7461   8.9646   9.1520   9.1680
     9.2230   9.3240   9.3508   9.4864   9.5088   9.6341   9.6973   9.7316
     9.8083   9.9444  10.0160  10.1229  10.1790  10.3704  10.4258  10.4640
    10.5225  10.6252  10.7454  10.8440  10.8918  11.0425  11.0879  11.1951
    11.2249  11.2561  11.4661  11.5095  11.5211  11.6008  11.6178  11.7127
    11.7409  11.8415  11.8815  11.9026  11.9906  12.0965  12.1254  12.1775
    12.2935  12.3870  12.4468  12.4607  12.5410  12.5918  12.6106  12.6519
    12.7147  12.7722  12.8394  12.8502  12.9457  13.0362  13.1637  13.1968
    13.3042  13.3238  13.3824  13.4341  13.4916  13.5434  13.5678  13.6461
    13.6937  13.7026

          k =-0.5000-0.5774 0.0000 ( 61343 PWs)   bands (ev):

  -107.7919-107.7886-107.7869-107.7863-107.7836-107.7834-107.7831-107.7824
  -107.7822-107.7817-107.7812-107.7810-107.7807-107.7801-107.7799-107.7794
  -107.7789-107.7785-107.7772-107.7765-107.7749-107.7736-107.7735-107.7729
  -107.7715-107.7712-107.7702-107.7692-107.7676-107.7669-107.7653-107.7643
  -107.7640-107.7635-107.7633-107.7615-107.5715-107.5690-107.5688-107.5664
  -107.5640-107.5638-107.5587-107.5564-107.5563-107.5296-107.5282-107.5280
  -107.5253-107.5251-107.5242-107.5241-107.5239-107.5236 -65.2414 -65.2373
   -65.2361 -65.2356 -65.2348 -65.2343 -65.2337 -65.2323 -65.2309 -65.2291
   -65.2287 -65.2278 -65.2251 -65.2236 -65.2229 -65.2224 -65.2223 -65.2199
   -65.2182 -65.2164 -65.2162 -65.2160 -65.2155 -65.2143 -65.2138 -65.2132
   -65.2123 -65.2118 -65.2096 -65.2087 -65.2053 -65.2038 -65.2035 -65.2025
   -65.2004 -65.2000 -65.1995 -65.1989 -65.1986 -65.1964 -65.1954 -65.1951
   -65.1946 -65.1937 -65.1930 -65.1926 -65.1913 -65.1896 -65.1892 -65.1888
   -65.1886 -65.1884 -65.1882 -65.1872 -65.1867 -65.1862 -65.1855 -65.1852
   -65.1845 -65.1834 -65.1830 -65.1829 -65.1827 -65.1821 -65.1807 -65.1798
   -65.1795 -65.1792 -65.1787 -65.1786 -65.1779 -65.1776 -65.1772 -65.1769
   -65.1767 -65.1760 -65.1755 -65.1748 -65.1745 -65.1738 -65.1736 -65.1727
   -65.1718 -65.1717 -65.1716 -65.1713 -65.1710 -65.1708 -65.1708 -65.1704
   -65.1689 -65.1683 -65.1680 -65.1664 -65.1658 -65.1655 -65.1652 -65.1649
   -65.1644 -65.1641 -65.1621 -65.1612 -65.1610 -65.1601 -65.1566 -65.1546
   -65.1545 -65.1508 -65.0351 -65.0333 -65.0311 -65.0238 -65.0210 -65.0183
   -65.0020 -65.0007 -64.9986 -64.9985 -64.9981 -64.9961 -64.9957 -64.9941
   -64.9909 -64.9902 -64.9891 -64.9885 -64.9853 -64.9851 -64.9835 -64.9797
   -64.9777 -64.9738 -64.9657 -64.9637 -64.9628 -64.9627 -64.9571 -64.9570
   -64.9562 -64.9561 -64.9511 -64.9496 -64.9486 -64.9485 -64.9450 -64.9450
   -64.9447 -64.9423 -64.9422 -64.9409 -64.9359 -64.9338 -64.9336 -64.9016
   -64.9003 -64.9001 -64.8976 -64.8973 -64.8966 -64.8965 -64.8961 -64.8959
   -12.8125 -10.0683 -10.0659  -6.4669  -6.4586  -4.4838  -3.4232  -2.8776
    -2.8212  -2.6174  -2.6169  -2.5616  -2.0536  -2.0491  -1.9841  -1.9307
    -1.8934  -1.2144  -1.1871  -0.9050  -0.6722  -0.6059  -0.6040  -0.2574
    -0.2559  -0.2202  -0.1903  -0.0206  -0.0152  -0.0148  -0.0074   0.0209
     0.1581   0.1598   0.1798   0.1801   0.1964   0.2460   0.2573   0.2575
     0.2754   0.3741   0.3768   0.3793   0.3797   0.4480   0.4570   0.5163
     0.5185   0.5295   0.5407   0.5695   0.5696   0.5717   0.5896   0.5913
     0.6523   0.6534   0.6844   0.6845   0.7147   0.7147   0.7422   0.7499
     0.7509   0.8140   0.8145   0.8441   0.8644   0.8788   0.8794   0.9492
     0.9544   1.0048   1.0242   1.0251   1.0497   1.0506   1.1103   1.1185
     1.1202   1.1362   1.1365   1.1468   1.1878   1.2137   1.2148   1.2581
     1.2590   1.2826   1.2857   1.2881   1.2907   1.3083   1.3086   1.3629
     1.3655   1.3691   1.3705   1.3754   1.3854   1.4046   1.4061   1.4156
     1.4183   1.4429   1.4464   1.4649   1.4680   1.4699   1.4881   1.5165
     1.5549   1.5588   1.5624   1.5646   1.5655   1.5923   1.6041   1.6139
     1.6163   1.6487   1.6533   1.6562   1.6580   1.6655   1.6878   1.7064
     1.7093   1.7192   1.7223   1.7242   1.7428   1.7600   1.7641   1.7655
     1.7674   1.7837   1.7889   1.8028   1.8037   1.8175   1.8227   1.8288
     1.8307   1.8519   1.8695   1.8766   1.8859   1.8911   1.8984   1.9033
     1.9068   1.9114   1.9217   1.9223   1.9268   1.9341   1.9363   1.9378
     1.9587   1.9597   1.9687   1.9812   1.9915   2.0033   2.0100   2.0133
     2.0258   2.0268   2.0287   2.0301   2.0328   2.0351   2.0370   2.0424
     2.0478   2.0651   2.1090   2.1120   2.1701   2.1703   2.1707   2.1770
     2.1812   2.1857   2.2041   2.2047   2.2282   2.2388   2.2406   2.2506
     2.2699   2.2711   2.3084   2.3100   2.3126   2.3415   2.3428   2.3437
     2.3444   2.3459   2.3477   2.3497   2.3539   2.3628   2.3808   2.3818
     2.4251   2.4279   2.4311   2.4320   2.4385   2.4440   2.4524   2.4751
     2.4803   2.4845   2.4974   2.5183   2.5201   2.5397   2.5475   2.5483
     2.5597   2.5636   2.5923   2.5997   2.6043   2.6091   2.6336   2.6359
     2.6561   2.6609   2.6612   2.6798   2.6830   2.7024   2.7053   2.7075
     2.7091   2.7141   2.7225   2.7239   2.7295   2.7366   2.7466   2.7645
     2.7962   2.7985   2.7998   2.8075   2.8504   2.8512   2.8639   2.8692
     2.8955   2.9071   2.9091   2.9153   2.9162   2.9249   2.9303   2.9592
     2.9614   2.9617   2.9695   2.9707   2.9796   2.9827   2.9844   2.9854
     2.9895   2.9929   2.9938   2.9952   2.9987   3.0115   3.0133   3.0261
     3.0272   3.0381   3.0384   3.0414   3.0506   3.0656   3.0712   3.0780
     3.0790   3.0956   3.1216   3.1227   3.1376   3.1579   3.1589   3.3178
     3.3293   3.4267   3.4269   3.5258   3.5271   3.6429   3.8492   3.8559
     4.2356   4.2608   4.3355   4.3366   4.3513   4.6110   4.7128   4.7309
     4.7421   4.7427   4.8967   5.1842   5.2122   5.2141   5.6630   5.6966
     5.7279   5.8149   5.9514   5.9624   5.9633   6.0968   6.1102   6.1836
     6.2654   6.6255   6.6959   6.7044   6.8712   6.9932   6.9981   7.0779
     7.0867   7.1977   7.2372   7.4122   7.6331   7.7543   7.9318   7.9719
     8.4607   8.5187   8.5208   8.6236   8.7461   8.9646   9.1520   9.1680
     9.2230   9.3240   9.3508   9.4864   9.5088   9.6341   9.6973   9.7317
     9.8083   9.9444  10.0159  10.1229  10.1790  10.3704  10.4258  10.4640
    10.5225  10.6252  10.7454  10.8440  10.8918  11.0424  11.0879  11.1951
    11.2248  11.2561  11.4662  11.5095  11.5211  11.6008  11.6177  11.7127
    11.7409  11.8415  11.8815  11.9026  11.9906  12.0965  12.1253  12.1775
    12.2936  12.3870  12.4469  12.4608  12.5410  12.5918  12.6106  12.6519
    12.7147  12.7721  12.8394  12.8501  12.9457  13.0362  13.1637  13.1967
    13.3042  13.3238  13.3824  13.4341  13.4916  13.5435  13.5678  13.6461
    13.6937  13.7026

     the Fermi energy is     4.6562 ev

!    total energy              =  -21903.76530986 Ry
     Harris-Foulkes estimate   =  -21903.76530988 Ry
     estimated scf accuracy    <          4.9E-09 Ry

     The total energy is the sum of the following terms:

     one-electron contribution = -207855.16130861 Ry
     hartree contribution      =  104131.78015421 Ry
     xc contribution           =   -2143.22046479 Ry
     ewald contribution        =   83962.88905058 Ry
     smearing contrib. (-TS)   =      -0.05274125 Ry

     convergence has been achieved in  38 iterations
 
     init_run     :     66.21s CPU     68.97s WALL (       1 calls)
     electrons    :  15589.69s CPU  15904.91s WALL (       1 calls)

     Called by init_run:
     wfcinit      :     56.46s CPU     58.26s WALL (       1 calls)
     potinit      :      6.71s CPU      7.06s WALL (       1 calls)
     hinit0       :      1.22s CPU      1.25s WALL (       1 calls)

     Called by electrons:
     c_bands      :  14674.98s CPU  14932.04s WALL (      38 calls)
     sum_band     :    655.31s CPU    688.47s WALL (      38 calls)
     v_of_rho     :    213.66s CPU    221.84s WALL (      39 calls)
     newd         :     42.48s CPU     59.81s WALL (      39 calls)
     mix_rho      :      6.26s CPU      6.42s WALL (      38 calls)

     Called by c_bands:
     init_us_2    :     14.59s CPU     15.01s WALL (     770 calls)
     cegterg      :  14530.43s CPU  14782.27s WALL (     380 calls)

     Called by sum_band:
     sum_band:bec :      2.70s CPU      2.71s WALL (     380 calls)
     addusdens    :     33.34s CPU     53.26s WALL (      38 calls)

     Called by *egterg:
     h_psi        :   3124.88s CPU   3206.24s WALL (    2097 calls)
     s_psi        :    380.94s CPU    381.40s WALL (    2097 calls)
     g_psi        :      6.02s CPU      6.05s WALL (    1707 calls)
     cdiaghg      :   8979.53s CPU   9056.93s WALL (    2087 calls)

     Called by h_psi:
     h_psi:pot    :   3115.52s CPU   3180.34s WALL (    2097 calls)
     h_psi:calbec :    427.51s CPU    431.16s WALL (    2097 calls)
     vloc_psi     :   2306.52s CPU   2366.48s WALL (    2097 calls)
     add_vuspsi   :    381.45s CPU    382.68s WALL (    2097 calls)

     General routines
     calbec       :    576.52s CPU    580.44s WALL (    2477 calls)
     fft          :    189.35s CPU    190.90s WALL (    2456 calls)
     ffts         :      4.10s CPU      4.12s WALL (      77 calls)
     fftw         :   2537.11s CPU   2603.24s WALL ( 1519598 calls)
     interpolate  :      3.25s CPU      3.28s WALL (      39 calls)
 
     Parallel routines
     fft_scatt_xy :    215.86s CPU    219.47s WALL ( 1522131 calls)
     fft_scatt_yz :   1665.26s CPU   1715.26s WALL ( 1522131 calls)
 
     PWSCF        :     4h20m CPU       20h 4m WALL

      26h
 
   This run was terminated on:  15: 0:40  21Nov2019            

=------------------------------------------------------------------------------=
   JOB DONE.
=------------------------------------------------------------------------------=
