
     Program PWSCF v.6.3MaX starts on 19Nov2019 at  9:32:36 

     This program is part of the open-source Quantum ESPRESSO suite
     for quantum simulation of materials; please cite
         "P. Giannozzi et al., J. Phys.:Condens. Matter 21 395502 (2009);
         "P. Giannozzi et al., J. Phys.:Condens. Matter 29 465901 (2017);
          URL http://www.quantum-espresso.org", 
     in publications or presentations arising from this work. More details at
     http://www.quantum-espresso.org/quote

     Parallel version (MPI), running on    16 processors

     MPI processes distributed on     2 nodes
     R & G space division:  proc/nbgrp/npool/nimage =      16
     Waiting for input...
     Reading input from standard input

     Current dimensions of program PWSCF are:
     Max number of different atomic species (ntypx) = 10
     Max number of k-points (npk) =  40000
     Max angular momentum in pseudopotentials (lmaxx) =  3
     Message from routine iosys:
     minimal I/O required, wf_collect reset to FALSE

     IMPORTANT: XC functional enforced from input :
     Exchange-correlation      = VDW-DF ( 1  4  4  0 1 0)
     Any further DFT definition will be discarded
     Please, verify this is what you really want


     Subspace diagonalization in iterative solution of the eigenvalue problem:
     one sub-group per band group will be used
     scalapack distributed-memory algorithm (size of sub-group:  2*  2 procs)

 
     Parallelization info
     --------------------
     sticks:   dense  smooth     PW     G-vecs:    dense   smooth      PW
     Min         565     189     51               159513    30701    4383
     Max         566     190     52               159526    30710    4400
     Sum        9055    3037    823              2552337   491295   70261
 


     bravais-lattice index     =            0
     lattice parameter (alat)  =      14.8058  a.u.
     unit-cell volume          =   10282.4791 (a.u.)^3
     number of atoms/cell      =           66
     number of atomic types    =            3
     number of electrons       =      1056.00
     number of Kohn-Sham states=          634
     kinetic-energy cutoff     =      50.0000  Ry
     charge density cutoff     =     600.0000  Ry
     convergence threshold     =      1.0E-08
     mixing beta               =       0.3000
     number of iterations used =            8  plain     mixing
     Exchange-correlation      = VDW-DF ( 1  4  4  0 1 0)

     celldm(1)=  14.805786  celldm(2)=   0.000000  celldm(3)=   0.000000
     celldm(4)=   0.000000  celldm(5)=   0.000000  celldm(6)=   0.000000

     crystal axes: (cart. coord. in units of alat)
               a(1) = (   1.000000   0.000000   0.000000 )  
               a(2) = (   0.500000   0.866025   0.000000 )  
               a(3) = (   0.000000   0.000000   3.658245 )  

     reciprocal axes: (cart. coord. in units 2 pi/alat)
               b(1) = (  1.000000 -0.577350  0.000000 )  
               b(2) = (  0.000000  1.154701  0.000000 )  
               b(3) = (  0.000000  0.000000  0.273355 )  


     PseudoPot. # 1 for Cu read from file:
     /deac/thonhauserGrp/chakrad/calculations/atomandmolecule-qe6.2.1-i2012-C6modif/all_pbe_UPF_v1.5/cu_pbe_v1.2.uspp.F.UPF
     MD5 check sum: 6e991ff952a84172a2a52a1c1e996048
     Pseudo is Ultrasoft + core correction, Zval = 19.0
     Generated by new atomic code, or converted to UPF format
     Using radial grid of  867 points,  6 beta functions with: 
                l(1) =   0
                l(2) =   0
                l(3) =   1
                l(4) =   1
                l(5) =   2
                l(6) =   2
     Q(r) pseudized with  8 coefficients,  rinner =    1.150   1.150   1.150
                                                       1.150   1.150

     PseudoPot. # 2 for C  read from file:
     /deac/thonhauserGrp/chakrad/calculations/atomandmolecule-qe6.2.1-i2012-C6modif/all_pbe_UPF_v1.5/c_pbe_v1.2.uspp.F.UPF
     MD5 check sum: d1aef80898a10debaa0f26306b886e00
     Pseudo is Ultrasoft + core correction, Zval =  4.0
     Generated by new atomic code, or converted to UPF format
     Using radial grid of  721 points,  4 beta functions with: 
                l(1) =   0
                l(2) =   0
                l(3) =   1
                l(4) =   1
     Q(r) pseudized with  8 coefficients,  rinner =    1.100   1.100   1.100


     PseudoPot. # 3 for H  read from file:
     /deac/thonhauserGrp/chakrad/calculations/atomandmolecule-qe6.2.1-i2012-C6modif/all_pbe_UPF_v1.5/h_pbe_v1.4.uspp.F.UPF
     MD5 check sum: 761ae9a214b05c3daf00ab9f6b793d6f
     Pseudo is Ultrasoft, Zval =  1.0
     Generated by new atomic code, or converted to UPF format
     Using radial grid of  615 points,  2 beta functions with: 
                l(1) =   0
                l(2) =   0
     Q(r) pseudized with  8 coefficients,  rinner =    0.700

     vdW kernel table read from file vdW_kernel_table
     MD5 check sum: cc9485f6209b1096fbef62427c856dab

     atomic species   valence    mass     pseudopotential
        Cu            19.00     1.00000     Cu( 1.00)
        C              4.00     1.00000     C ( 1.00)
        H              1.00     1.00000     H ( 1.00)

     No symmetry found



   Cartesian axes

     site n.     atom                  positions (alat units)
         1           Cu  tau(   1) = (   0.1666667   0.0962250   0.2552686  )
         2           Cu  tau(   2) = (   0.5000000   0.0962250   0.2552686  )
         3           Cu  tau(   3) = (   0.8333333   0.0962250   0.2552686  )
         4           Cu  tau(   4) = (   0.3333333   0.3849002   0.2552686  )
         5           Cu  tau(   5) = (   0.6666667   0.3849002   0.2552686  )
         6           Cu  tau(   6) = (   1.0000000   0.3849002   0.2552686  )
         7           Cu  tau(   7) = (   0.5000000   0.6735753   0.2552686  )
         8           Cu  tau(   8) = (   0.8333333   0.6735753   0.2552686  )
         9           Cu  tau(   9) = (   1.1666667   0.6735753   0.2552686  )
        10           Cu  tau(  10) = (   0.0000000   0.1924501   0.5274341  )
        11           Cu  tau(  11) = (   0.3333333   0.1924501   0.5274341  )
        12           Cu  tau(  12) = (   0.6666667   0.1924501   0.5274341  )
        13           Cu  tau(  13) = (   0.1666667   0.4811252   0.5274341  )
        14           Cu  tau(  14) = (   0.5000000   0.4811252   0.5274341  )
        15           Cu  tau(  15) = (   0.8333333   0.4811252   0.5274341  )
        16           Cu  tau(  16) = (   0.3333333   0.7698004   0.5274341  )
        17           Cu  tau(  17) = (   0.6666667   0.7698004   0.5274341  )
        18           Cu  tau(  18) = (   1.0000000   0.7698004   0.5274341  )
        19           Cu  tau(  19) = (   0.0000000   0.0000000   0.7995997  )
        20           Cu  tau(  20) = (   0.3333333   0.0000000   0.7995997  )
        21           Cu  tau(  21) = (   0.6666667   0.0000000   0.7995997  )
        22           Cu  tau(  22) = (   0.1666667   0.2886751   0.7995997  )
        23           Cu  tau(  23) = (   0.5000000   0.2886751   0.7995997  )
        24           Cu  tau(  24) = (   0.8333333   0.2886751   0.7995997  )
        25           Cu  tau(  25) = (   0.3333333   0.5773503   0.7995997  )
        26           Cu  tau(  26) = (   0.6666667   0.5773503   0.7995997  )
        27           Cu  tau(  27) = (   1.0000000   0.5773503   0.7995997  )
        28           Cu  tau(  28) = (   0.1666659   0.0962246   1.0691130  )
        29           Cu  tau(  29) = (   0.5000000   0.0962241   1.0691104  )
        30           Cu  tau(  30) = (   0.8333341   0.0962246   1.0691130  )
        31           Cu  tau(  31) = (   0.3333325   0.3849006   1.0691104  )
        32           Cu  tau(  32) = (   0.6666675   0.3849006   1.0691104  )
        33           Cu  tau(  33) = (   1.0000000   0.3849003   1.0691143  )
        34           Cu  tau(  34) = (   0.5000000   0.6735762   1.0691130  )
        35           Cu  tau(  35) = (   0.8333334   0.6735753   1.0691143  )
        36           Cu  tau(  36) = (   1.1666666   0.6735753   1.0691143  )
        37           Cu  tau(  37) = (   0.0000000   0.1924486   1.3387540  )
        38           Cu  tau(  38) = (   0.3333330   0.1924499   1.3387465  )
        39           Cu  tau(  39) = (   0.6666670   0.1924499   1.3387465  )
        40           Cu  tau(  40) = (   0.1666676   0.4811247   1.3387504  )
        41           Cu  tau(  41) = (   0.5000000   0.4811256   1.3387465  )
        42           Cu  tau(  42) = (   0.8333324   0.4811247   1.3387504  )
        43           Cu  tau(  43) = (   0.3333346   0.7698011   1.3387540  )
        44           Cu  tau(  44) = (   0.6666654   0.7698011   1.3387540  )
        45           Cu  tau(  45) = (   1.0000000   0.7698014   1.3387504  )
        46           Cu  tau(  46) = (   0.0000000   0.0000000   1.6083750  )
        47           Cu  tau(  47) = (   0.3333333   0.0000005   1.6083624  )
        48           Cu  tau(  48) = (   0.6666667   0.0000005   1.6083624  )
        49           Cu  tau(  49) = (   0.1666671   0.2886748   1.6083624  )
        50           Cu  tau(  50) = (   0.5000000   0.2886751   1.6083553  )
        51           Cu  tau(  51) = (   0.8333329   0.2886748   1.6083624  )
        52           Cu  tau(  52) = (   0.3333338   0.5773500   1.6083624  )
        53           Cu  tau(  53) = (   0.6666662   0.5773500   1.6083624  )
        54           Cu  tau(  54) = (   1.0000000   0.5773503   1.6083570  )
        55           C   tau(  55) = (   0.6567407   0.3959883   2.0614197  )
        56           C   tau(  56) = (   0.5046394   0.3028152   2.0614196  )
        57           C   tau(  57) = (   0.3478975   0.3879497   2.0614197  )
        58           C   tau(  58) = (   0.3432593   0.5662630   2.0614197  )
        59           C   tau(  59) = (   0.4953606   0.6594361   2.0614196  )
        60           C   tau(  60) = (   0.6521025   0.5743016   2.0614197  )
        61           H   tau(  61) = (   0.7789959   0.3295665   2.0614979  )
        62           H   tau(  62) = (   0.5082587   0.1637263   2.0614979  )
        63           H   tau(  63) = (   0.2292624   0.3152577   2.0614979  )
        64           H   tau(  64) = (   0.2210041   0.6326847   2.0614979  )
        65           H   tau(  65) = (   0.4917413   0.7985249   2.0614979  )
        66           H   tau(  66) = (   0.7707376   0.6469936   2.0614979  )

     number of k points=    10  gaussian smearing, width (Ry)=  0.0200
                       cart. coord. in units 2pi/alat
        k(    1) = (   0.0000000   0.0000000   0.0000000), wk =   0.1250000
        k(    2) = (   0.0000000   0.2886751   0.0000000), wk =   0.2500000
        k(    3) = (   0.0000000  -0.5773503   0.0000000), wk =   0.1250000
        k(    4) = (   0.2500000  -0.7216878   0.0000000), wk =   0.2500000
        k(    5) = (  -0.2500000   0.1443376   0.0000000), wk =   0.2500000
        k(    6) = (   0.2500000   0.1443376   0.0000000), wk =   0.2500000
        k(    7) = (   0.5000000  -0.2886751   0.0000000), wk =   0.1250000
        k(    8) = (  -0.5000000  -0.2886751   0.0000000), wk =   0.1250000
        k(    9) = (  -0.2500000  -0.7216878   0.0000000), wk =   0.2500000
        k(   10) = (  -0.5000000  -0.5773503   0.0000000), wk =   0.2500000

     Dense  grid:  2552337 G-vectors     FFT dimensions: ( 120, 120, 432)

     Smooth grid:   491295 G-vectors     FFT dimensions: (  72,  72, 243)

     Estimated max dynamical RAM per process >       1.14 GB

     Estimated total dynamical RAM >      18.26 GB

     Initial potential from superposition of free atoms
     Check: negative starting charge=   -0.000737

     starting charge 1001.99960, renormalised to 1056.00000

     negative rho (up, down):  7.763E-04 0.000E+00


     %%%%%%%%%%%%%%%%%%%%%%%%%%%%%%%%%%%%%%%%%%%%%%%%%%%%%%%%%%%%%%%%%%%%%%%%
     %                                                                      %
     % You are using vdW-DF, which was implemented by the Thonhauser group. %
     % Please cite the following two papers that made this development      %
     % possible and the two reviews that describe the various versions:     %
     %                                                                      %
     %   T. Thonhauser et al., PRL 115, 136402 (2015).                      %
     %   T. Thonhauser et al., PRB 76, 125112 (2007).                       %
     %   K. Berland et al., Rep. Prog. Phys. 78, 066501 (2015).             %
     %   D.C. Langreth et al., J. Phys.: Condens. Matter 21, 084203 (2009). %
     %                                                                      %
     %                                                                      %
     % If you are calculating the stress with vdW-DF, please also cite:     %
     %                                                                      %
     %   R. Sabatini et al., J. Phys.: Condens. Matter 24, 424209 (2012).   %
     %                                                                      %
     %%%%%%%%%%%%%%%%%%%%%%%%%%%%%%%%%%%%%%%%%%%%%%%%%%%%%%%%%%%%%%%%%%%%%%%%


     Starting wfcs are  732 randomized atomic wfcs

     total cpu time spent up to now is       89.5 secs

     Self-consistent Calculation

     iteration #  1     ecut=    50.00 Ry     beta= 0.30
     Davidson diagonalization with overlap
     ethr =  1.00E-02,  avg # of iterations =  5.3

     negative rho (up, down):  4.830E-04 0.000E+00

     total cpu time spent up to now is     1371.3 secs

     total energy              =  -19001.38303599 Ry
     Harris-Foulkes estimate   =  -22005.96693996 Ry
     estimated scf accuracy    <    5939.02144065 Ry

     iteration #  2     ecut=    50.00 Ry     beta= 0.30
     Davidson diagonalization with overlap
     ethr =  1.00E-02,  avg # of iterations = 19.2

     negative rho (up, down):  5.216E-04 0.000E+00

     total cpu time spent up to now is     4472.8 secs

     total energy              =  -19246.09725903 Ry
     Harris-Foulkes estimate   =  -38834.54579504 Ry
     estimated scf accuracy    <  282378.92273443 Ry

     iteration #  3     ecut=    50.00 Ry     beta= 0.30
     Davidson diagonalization with overlap
     ethr =  1.00E-02,  avg # of iterations =  7.0

     negative rho (up, down):  6.059E-04 0.000E+00

     total cpu time spent up to now is     6069.0 secs

     total energy              =  -21732.57107370 Ry
     Harris-Foulkes estimate   =  -23374.54510390 Ry
     estimated scf accuracy    <   43127.91742468 Ry

     iteration #  4     ecut=    50.00 Ry     beta= 0.30
     Davidson diagonalization with overlap
     ethr =  1.00E-02,  avg # of iterations =  7.0

     negative rho (up, down):  8.253E-04 0.000E+00

     total cpu time spent up to now is     7326.3 secs

     total energy              =  -21733.26602754 Ry
     Harris-Foulkes estimate   =  -22115.06570218 Ry
     estimated scf accuracy    <   10454.76107114 Ry

     iteration #  5     ecut=    50.00 Ry     beta= 0.30
     Davidson diagonalization with overlap
     ethr =  1.00E-02,  avg # of iterations =  6.0

     negative rho (up, down):  6.772E-07 0.000E+00

     total cpu time spent up to now is     8789.2 secs

     total energy              =  -21698.69460731 Ry
     Harris-Foulkes estimate   =  -22161.75749177 Ry
     estimated scf accuracy    <    9624.86417601 Ry

     iteration #  6     ecut=    50.00 Ry     beta= 0.30
     Davidson diagonalization with overlap
     ethr =  1.00E-02,  avg # of iterations =  5.4

     negative rho (up, down):  1.294E-06 0.000E+00

     total cpu time spent up to now is     9825.4 secs

     total energy              =  -21873.78956060 Ry
     Harris-Foulkes estimate   =  -21977.77119308 Ry
     estimated scf accuracy    <     952.25546202 Ry

     iteration #  7     ecut=    50.00 Ry     beta= 0.30
     Davidson diagonalization with overlap
     ethr =  1.00E-02,  avg # of iterations =  3.3

     negative rho (up, down):  6.731E-06 0.000E+00

     total cpu time spent up to now is    10182.0 secs

     total energy              =  -21911.60061694 Ry
     Harris-Foulkes estimate   =  -21939.39815712 Ry
     estimated scf accuracy    <     836.16116907 Ry

     iteration #  8     ecut=    50.00 Ry     beta= 0.30
     Davidson diagonalization with overlap
     ethr =  1.00E-02,  avg # of iterations =  2.1

     negative rho (up, down):  6.549E-05 0.000E+00

     total cpu time spent up to now is    10425.6 secs

     total energy              =  -21912.14132433 Ry
     Harris-Foulkes estimate   =  -21925.57085456 Ry
     estimated scf accuracy    <      94.75813738 Ry

     iteration #  9     ecut=    50.00 Ry     beta= 0.30
     Davidson diagonalization with overlap
     ethr =  8.97E-03,  avg # of iterations =  2.9

     negative rho (up, down):  1.434E-04 0.000E+00

     total cpu time spent up to now is    10712.7 secs

     total energy              =  -21912.81975175 Ry
     Harris-Foulkes estimate   =  -21916.73691042 Ry
     estimated scf accuracy    <     107.55047846 Ry

     iteration # 10     ecut=    50.00 Ry     beta= 0.30
     Davidson diagonalization with overlap
     ethr =  8.97E-03,  avg # of iterations =  1.1

     negative rho (up, down):  3.175E-02 0.000E+00

     total cpu time spent up to now is    10926.1 secs

     total energy              =  -21896.36495766 Ry
     Harris-Foulkes estimate   =  -21913.29549094 Ry
     estimated scf accuracy    <      82.29273388 Ry

     iteration # 11     ecut=    50.00 Ry     beta= 0.30
     Davidson diagonalization with overlap
     ethr =  7.79E-03,  avg # of iterations =  4.3

     negative rho (up, down):  4.613E-07 0.000E+00

     total cpu time spent up to now is    11367.8 secs

     total energy              =  -21889.22851421 Ry
     Harris-Foulkes estimate   =  -21918.79915998 Ry
     estimated scf accuracy    <     881.04603486 Ry

     iteration # 12     ecut=    50.00 Ry     beta= 0.30
     Davidson diagonalization with overlap
     ethr =  7.79E-03,  avg # of iterations =  3.0

     negative rho (up, down):  5.768E-07 0.000E+00

     total cpu time spent up to now is    11652.2 secs

     total energy              =  -21900.67950139 Ry
     Harris-Foulkes estimate   =  -21906.31761789 Ry
     estimated scf accuracy    <      49.79076888 Ry

     iteration # 13     ecut=    50.00 Ry     beta= 0.30
     Davidson diagonalization with overlap
     ethr =  4.72E-03,  avg # of iterations =  3.3

     negative rho (up, down):  3.125E-07 0.000E+00

     total cpu time spent up to now is    11963.4 secs

     total energy              =  -21904.28216454 Ry
     Harris-Foulkes estimate   =  -21904.48935667 Ry
     estimated scf accuracy    <       6.29977708 Ry

     iteration # 14     ecut=    50.00 Ry     beta= 0.30
     Davidson diagonalization with overlap
     ethr =  5.97E-04,  avg # of iterations =  7.0

     negative rho (up, down):  1.299E-07 0.000E+00

     total cpu time spent up to now is    12413.9 secs

     total energy              =  -21904.04057291 Ry
     Harris-Foulkes estimate   =  -21904.50975051 Ry
     estimated scf accuracy    <       7.13158370 Ry

     iteration # 15     ecut=    50.00 Ry     beta= 0.30
     Davidson diagonalization with overlap
     ethr =  5.97E-04,  avg # of iterations =  5.4

     negative rho (up, down):  1.507E-07 0.000E+00

     total cpu time spent up to now is    12782.0 secs

     total energy              =  -21903.98158572 Ry
     Harris-Foulkes estimate   =  -21904.19226817 Ry
     estimated scf accuracy    <       6.75343871 Ry

     iteration # 16     ecut=    50.00 Ry     beta= 0.30
     Davidson diagonalization with overlap
     ethr =  5.97E-04,  avg # of iterations =  2.7

     negative rho (up, down):  1.682E-07 0.000E+00

     total cpu time spent up to now is    13055.7 secs

     total energy              =  -21903.94263318 Ry
     Harris-Foulkes estimate   =  -21904.09415926 Ry
     estimated scf accuracy    <       4.87818970 Ry

     iteration # 17     ecut=    50.00 Ry     beta= 0.30
     Davidson diagonalization with overlap
     ethr =  4.62E-04,  avg # of iterations =  1.0

     negative rho (up, down):  3.356E-07 0.000E+00

     total cpu time spent up to now is    13268.0 secs

     total energy              =  -21903.85990609 Ry
     Harris-Foulkes estimate   =  -21903.96548873 Ry
     estimated scf accuracy    <       2.65336945 Ry

     iteration # 18     ecut=    50.00 Ry     beta= 0.30
     Davidson diagonalization with overlap
     ethr =  2.51E-04,  avg # of iterations =  7.0

     negative rho (up, down):  6.767E-07 0.000E+00

     total cpu time spent up to now is    13695.8 secs

     total energy              =  -21903.82926486 Ry
     Harris-Foulkes estimate   =  -21903.87874584 Ry
     estimated scf accuracy    <       1.05053525 Ry

     iteration # 19     ecut=    50.00 Ry     beta= 0.30
     Davidson diagonalization with overlap
     ethr =  9.95E-05,  avg # of iterations =  6.7

     negative rho (up, down):  2.403E-06 0.000E+00

     total cpu time spent up to now is    14111.4 secs

     total energy              =  -21903.81709160 Ry
     Harris-Foulkes estimate   =  -21903.83819585 Ry
     estimated scf accuracy    <       0.87275559 Ry

     iteration # 20     ecut=    50.00 Ry     beta= 0.30
     Davidson diagonalization with overlap
     ethr =  8.26E-05,  avg # of iterations =  4.1

     negative rho (up, down):  1.981E-04 0.000E+00

     total cpu time spent up to now is    14438.2 secs

     total energy              =  -21903.74541207 Ry
     Harris-Foulkes estimate   =  -21903.81970878 Ry
     estimated scf accuracy    <       0.50596332 Ry

     iteration # 21     ecut=    50.00 Ry     beta= 0.30
     Davidson diagonalization with overlap
     ethr =  4.79E-05,  avg # of iterations =  7.4

     negative rho (up, down):  3.413E-04 0.000E+00

     total cpu time spent up to now is    14946.1 secs

     total energy              =  -21903.76692707 Ry
     Harris-Foulkes estimate   =  -21903.77046391 Ry
     estimated scf accuracy    <       0.01936535 Ry

     iteration # 22     ecut=    50.00 Ry     beta= 0.30
     Davidson diagonalization with overlap
     ethr =  1.83E-06,  avg # of iterations =  6.0

     negative rho (up, down):  4.474E-04 0.000E+00

     total cpu time spent up to now is    15385.7 secs

     total energy              =  -21903.76801733 Ry
     Harris-Foulkes estimate   =  -21903.76923017 Ry
     estimated scf accuracy    <       0.01208835 Ry

     iteration # 23     ecut=    50.00 Ry     beta= 0.30
     Davidson diagonalization with overlap
     ethr =  1.14E-06,  avg # of iterations =  4.0

     negative rho (up, down):  9.175E-04 0.000E+00

     total cpu time spent up to now is    15709.9 secs

     total energy              =  -21903.76834748 Ry
     Harris-Foulkes estimate   =  -21903.76904891 Ry
     estimated scf accuracy    <       0.00542776 Ry

     iteration # 24     ecut=    50.00 Ry     beta= 0.30
     Davidson diagonalization with overlap
     ethr =  5.14E-07,  avg # of iterations =  6.6

     negative rho (up, down):  1.131E-03 0.000E+00

     total cpu time spent up to now is    16183.7 secs

     total energy              =  -21903.76882467 Ry
     Harris-Foulkes estimate   =  -21903.76890913 Ry
     estimated scf accuracy    <       0.00074014 Ry

     iteration # 25     ecut=    50.00 Ry     beta= 0.30
     Davidson diagonalization with overlap
     ethr =  7.01E-08,  avg # of iterations =  4.4

     negative rho (up, down):  1.775E-03 0.000E+00

     total cpu time spent up to now is    16520.9 secs

     total energy              =  -21903.76894699 Ry
     Harris-Foulkes estimate   =  -21903.76891190 Ry
     estimated scf accuracy    <       0.00026395 Ry

     iteration # 26     ecut=    50.00 Ry     beta= 0.30
     Davidson diagonalization with overlap
     ethr =  2.50E-08,  avg # of iterations =  7.0

     negative rho (up, down):  1.884E-03 0.000E+00

     total cpu time spent up to now is    17003.9 secs

     total energy              =  -21903.76896447 Ry
     Harris-Foulkes estimate   =  -21903.76897729 Ry
     estimated scf accuracy    <       0.00009472 Ry

     iteration # 27     ecut=    50.00 Ry     beta= 0.30
     Davidson diagonalization with overlap
     ethr =  8.97E-09,  avg # of iterations =  1.0

     negative rho (up, down):  2.197E-03 0.000E+00

     total cpu time spent up to now is    17213.0 secs

     total energy              =  -21903.76897638 Ry
     Harris-Foulkes estimate   =  -21903.76897613 Ry
     estimated scf accuracy    <       0.00003665 Ry

     iteration # 28     ecut=    50.00 Ry     beta= 0.30
     Davidson diagonalization with overlap
     ethr =  3.47E-09,  avg # of iterations =  2.0

     negative rho (up, down):  2.285E-03 0.000E+00

     total cpu time spent up to now is    17459.2 secs

     total energy              =  -21903.76897787 Ry
     Harris-Foulkes estimate   =  -21903.76897983 Ry
     estimated scf accuracy    <       0.00001218 Ry

     iteration # 29     ecut=    50.00 Ry     beta= 0.30
     Davidson diagonalization with overlap
     ethr =  1.15E-09,  avg # of iterations =  2.0

     negative rho (up, down):  2.346E-03 0.000E+00

     total cpu time spent up to now is    17704.5 secs

     total energy              =  -21903.76897860 Ry
     Harris-Foulkes estimate   =  -21903.76897951 Ry
     estimated scf accuracy    <       0.00000583 Ry

     iteration # 30     ecut=    50.00 Ry     beta= 0.30
     Davidson diagonalization with overlap
     ethr =  5.52E-10,  avg # of iterations =  2.0

     negative rho (up, down):  2.361E-03 0.000E+00

     total cpu time spent up to now is    17953.9 secs

     total energy              =  -21903.76897872 Ry
     Harris-Foulkes estimate   =  -21903.76897954 Ry
     estimated scf accuracy    <       0.00000895 Ry

     iteration # 31     ecut=    50.00 Ry     beta= 0.30
     Davidson diagonalization with overlap
     ethr =  5.52E-10,  avg # of iterations =  1.0

     negative rho (up, down):  2.384E-03 0.000E+00

     total cpu time spent up to now is    18163.6 secs

     total energy              =  -21903.76897896 Ry
     Harris-Foulkes estimate   =  -21903.76897929 Ry
     estimated scf accuracy    <       0.00000449 Ry

     iteration # 32     ecut=    50.00 Ry     beta= 0.30
     Davidson diagonalization with overlap
     ethr =  4.25E-10,  avg # of iterations =  1.0

     negative rho (up, down):  2.383E-03 0.000E+00

     total cpu time spent up to now is    18371.6 secs

     total energy              =  -21903.76897913 Ry
     Harris-Foulkes estimate   =  -21903.76897911 Ry
     estimated scf accuracy    <       0.00000030 Ry

     iteration # 33     ecut=    50.00 Ry     beta= 0.30
     Davidson diagonalization with overlap
     ethr =  2.86E-11,  avg # of iterations =  2.0

     negative rho (up, down):  2.398E-03 0.000E+00

     total cpu time spent up to now is    18621.0 secs

     total energy              =  -21903.76897902 Ry
     Harris-Foulkes estimate   =  -21903.76897916 Ry
     estimated scf accuracy    <       0.00000013 Ry

     iteration # 34     ecut=    50.00 Ry     beta= 0.30
     Davidson diagonalization with overlap
     ethr =  1.24E-11,  avg # of iterations =  2.0

     negative rho (up, down):  2.399E-03 0.000E+00

     total cpu time spent up to now is    18868.9 secs

     total energy              =  -21903.76897902 Ry
     Harris-Foulkes estimate   =  -21903.76897903 Ry
     estimated scf accuracy    <       0.00000015 Ry

     iteration # 35     ecut=    50.00 Ry     beta= 0.30
     Davidson diagonalization with overlap
     ethr =  1.24E-11,  avg # of iterations =  2.0

     negative rho (up, down):  2.404E-03 0.000E+00

     total cpu time spent up to now is    19116.4 secs

     total energy              =  -21903.76897897 Ry
     Harris-Foulkes estimate   =  -21903.76897903 Ry
     estimated scf accuracy    <       0.00000003 Ry

     iteration # 36     ecut=    50.00 Ry     beta= 0.30
     Davidson diagonalization with overlap
     ethr =  3.10E-12,  avg # of iterations =  2.0

     negative rho (up, down):  2.414E-03 0.000E+00

     total cpu time spent up to now is    19366.2 secs

     End of self-consistent calculation

          k = 0.0000 0.0000 0.0000 ( 61453 PWs)   bands (ev):

  -107.8483-107.8443-107.8417-107.8417-107.8417-107.8412-107.8412-107.8407
  -107.8396-107.8381-107.8381-107.8380-107.8379-107.8373-107.8373-107.8369
  -107.8366-107.8365-107.8323-107.8323-107.8323-107.8318-107.8313-107.8313
  -107.8310-107.8290-107.8290-107.8272-107.8234-107.8225-107.8225-107.8225
  -107.8225-107.8217-107.8201-107.8196-107.6131-107.6091-107.6090-107.6081
  -107.6066-107.6066-107.6066-107.6045-107.6045-107.5885-107.5835-107.5835
  -107.5835-107.5833-107.5833-107.5833-107.5808-107.5808 -65.3025 -65.2897
   -65.2889 -65.2889 -65.2885 -65.2885 -65.2879 -65.2815 -65.2814 -65.2814
   -65.2809 -65.2809 -65.2804 -65.2804 -65.2802 -65.2772 -65.2771 -65.2771
   -65.2768 -65.2750 -65.2696 -65.2696 -65.2692 -65.2684 -65.2682 -65.2682
   -65.2667 -65.2666 -65.2666 -65.2662 -65.2662 -65.2656 -65.2655 -65.2655
   -65.2631 -65.2631 -65.2628 -65.2625 -65.2572 -65.2572 -65.2571 -65.2565
   -65.2564 -65.2564 -65.2557 -65.2557 -65.2521 -65.2521 -65.2510 -65.2492
   -65.2491 -65.2488 -65.2488 -65.2487 -65.2487 -65.2484 -65.2461 -65.2418
   -65.2418 -65.2408 -65.2408 -65.2406 -65.2403 -65.2403 -65.2401 -65.2389
   -65.2389 -65.2388 -65.2379 -65.2374 -65.2374 -65.2371 -65.2371 -65.2344
   -65.2344 -65.2309 -65.2305 -65.2305 -65.2305 -65.2304 -65.2304 -65.2300
   -65.2300 -65.2296 -65.2294 -65.2292 -65.2292 -65.2268 -65.2242 -65.2242
   -65.2238 -65.2234 -65.2234 -65.2234 -65.2234 -65.2234 -65.2176 -65.2176
   -65.2161 -65.2161 -65.2159 -65.2156 -65.2154 -65.2154 -65.2117 -65.2117
   -65.2049 -65.2049 -65.0655 -65.0651 -65.0651 -65.0644 -65.0644 -65.0633
   -65.0617 -65.0617 -65.0617 -65.0608 -65.0429 -65.0427 -65.0427 -65.0427
   -65.0425 -65.0425 -65.0401 -65.0401 -65.0398 -65.0396 -65.0302 -65.0296
   -65.0296 -65.0286 -65.0285 -65.0285 -65.0169 -65.0169 -65.0074 -65.0074
   -65.0074 -65.0074 -65.0073 -65.0071 -64.9951 -64.9951 -64.9892 -64.9856
   -64.9856 -64.9845 -64.9829 -64.9829 -64.9829 -64.9810 -64.9810 -64.9605
   -64.9558 -64.9558 -64.9558 -64.9556 -64.9556 -64.9556 -64.9533 -64.9533
   -12.6319  -9.8873  -9.8871  -6.2963  -6.2958  -4.3721  -4.1130  -3.4931
    -2.7766  -2.5438  -2.3825  -1.7334  -1.7333  -1.4201  -1.1479  -1.1474
    -1.1474  -1.1473  -1.1473  -1.1472  -0.7488  -0.7433  -0.7433  -0.7432
    -0.7431  -0.7431  -0.6217  -0.4402  -0.2460  -0.2435  -0.2435  -0.2430
    -0.2429  -0.2429  -0.2283   0.1944   0.1945   0.2068   0.2068   0.2080
     0.2112   0.2152   0.2153   0.5567   0.5567   0.5580   0.5583   0.5583
     0.5599   0.6832   0.6832   0.6835   0.6836   0.6836   0.6841   0.7327
     0.7327   0.7331   0.7331   0.7331   0.7337   0.7615   0.7615   0.7754
     0.7754   0.7862   0.7863   0.8820   0.8820   0.8901   0.8901   0.9102
     0.9102   0.9106   0.9112   0.9112   0.9119   0.9204   0.9204   0.9214
     0.9215   0.9702   0.9702   1.0134   1.0134   1.1195   1.1195   1.1230
     1.1230   1.1241   1.1242   1.1242   1.1253   1.1580   1.1580   1.3580
     1.3580   1.3605   1.3606   1.3606   1.3619   1.4907   1.4907   1.4989
     1.4989   1.5117   1.5117   1.5135   1.5135   1.5138   1.5144   1.5528
     1.5569   1.5570   1.5721   1.6254   1.6254   1.6269   1.6269   1.6271
     1.6275   1.6397   1.6397   1.6656   1.6656   1.6965   1.7021   1.7021
     1.7100   1.7100   1.7131   1.7131   1.7132   1.7139   1.7520   1.7520
     1.7635   1.7635   1.7648   1.7648   1.7648   1.7653   1.7843   1.7844
     1.7844   1.7849   1.7850   1.7850   1.7908   1.7908   1.8070   1.8889
     1.8889   1.9068   1.9068   1.9140   1.9140   1.9140   1.9160   1.9297
     1.9297   1.9319   1.9328   1.9551   1.9551   1.9615   1.9616   1.9851
     1.9851   1.9862   1.9862   1.9863   1.9867   1.9870   1.9870   2.0918
     2.0918   2.1781   2.1782   2.1782   2.1812   2.2390   2.2390   2.2446
     2.2447   2.2447   2.2451   2.2451   2.2451   2.3084   2.3084   2.3095
     2.3111   2.3209   2.3209   2.3248   2.3248   2.3469   2.3469   2.3643
     2.3643   2.3890   2.4130   2.4130   2.4422   2.4422   2.4486   2.4486
     2.4490   2.4517   2.4678   2.4678   2.4752   2.4753   2.4753   2.4755
     2.4756   2.4757   2.4787   2.4787   2.4807   2.4807   2.5498   2.5498
     2.6145   2.6146   2.6146   2.6148   2.6149   2.6149   2.6712   2.6718
     2.6718   2.6734   2.6739   2.6740   2.6740   2.6743   2.6744   2.6744
     2.6798   2.6798   2.7375   2.7375   2.7427   2.7427   2.7427   2.7431
     2.7432   2.7432   2.7541   2.7542   2.7542   2.7545   2.7546   2.7546
     2.7784   2.7785   2.7785   2.7788   2.7788   2.7788   2.8086   2.8086
     2.8200   2.8200   2.8470   2.8475   2.8475   2.8477   2.8477   2.8478
     2.8522   2.8523   2.8735   2.8738   2.8738   2.8739   2.8739   2.8741
     2.9019   2.9019   2.9056   2.9056   2.9058   2.9058   2.9261   2.9262
     2.9407   2.9407   2.9407   2.9412   2.9412   2.9412   2.9664   2.9664
     2.9665   2.9685   2.9685   2.9720   2.9957   2.9957   3.0183   3.0183
     3.0183   3.0189   3.0189   3.0189   3.8416   3.9479   3.9480   3.9491
     3.9658   3.9789   3.9789   4.4322   5.3753   5.3753   5.3818   5.4009
     5.4216   5.4216   7.0265   7.0266   7.0534   7.1521   7.2331   7.2331
     7.2761   7.4715   7.4717   7.8119   7.8120   7.8120   7.8120   7.8278
     7.8278   8.1716   8.2051   8.2051   8.2252   8.2252   8.4908   8.6218
     8.6230   8.7844   8.8728   8.8729   8.8789   8.8796   9.0055   9.0056
     9.0056   9.2382   9.4883   9.4977   9.4977   9.5034   9.5034   9.8088
     9.8090   9.8704   9.8811   9.8838  10.5588  10.5775  10.6559  10.6559
    10.6733  10.6733  10.8242  10.8242  10.8688  10.8688  10.9063  11.0822
    11.1303  11.1303  11.2726  11.3052  11.3052  11.3222  11.3222  11.3381
    11.4547  11.6777  11.6778  11.7976  11.8139  11.8139  11.8597  11.8597
    11.8891  11.8891  11.8899  11.9441  11.9441  12.0291  12.1100  12.2221
    12.2221  12.2464  12.3179  12.3314  12.3315  12.4590  12.4590  12.7129
    12.9013  12.9013  12.9024  12.9961  12.9961  12.9983  13.0122  13.0354
    13.0942  13.1080

          k = 0.0000 0.2887 0.0000 ( 61417 PWs)   bands (ev):

  -107.8478-107.8446-107.8430-107.8423-107.8418-107.8408-107.8402-107.8399
  -107.8394-107.8386-107.8385-107.8379-107.8378-107.8376-107.8373-107.8366
  -107.8365-107.8362-107.8335-107.8325-107.8323-107.8318-107.8310-107.8309
  -107.8303-107.8291-107.8291-107.8268-107.8242-107.8231-107.8230-107.8219
  -107.8217-107.8211-107.8203-107.8197-107.6127-107.6098-107.6092-107.6081
  -107.6070-107.6063-107.6057-107.6047-107.6046-107.5880-107.5851-107.5840
  -107.5840-107.5825-107.5825-107.5821-107.5810-107.5810 -65.3010 -65.2920
   -65.2914 -65.2902 -65.2892 -65.2891 -65.2885 -65.2882 -65.2853 -65.2853
   -65.2844 -65.2843 -65.2827 -65.2825 -65.2780 -65.2766 -65.2765 -65.2746
   -65.2739 -65.2729 -65.2727 -65.2726 -65.2724 -65.2721 -65.2702 -65.2702
   -65.2697 -65.2694 -65.2655 -65.2654 -65.2626 -65.2623 -65.2622 -65.2610
   -65.2609 -65.2603 -65.2596 -65.2595 -65.2575 -65.2574 -65.2551 -65.2551
   -65.2518 -65.2517 -65.2514 -65.2511 -65.2503 -65.2502 -65.2493 -65.2484
   -65.2479 -65.2470 -65.2465 -65.2455 -65.2453 -65.2450 -65.2443 -65.2437
   -65.2435 -65.2418 -65.2415 -65.2414 -65.2411 -65.2411 -65.2409 -65.2385
   -65.2384 -65.2364 -65.2363 -65.2355 -65.2355 -65.2341 -65.2339 -65.2337
   -65.2331 -65.2329 -65.2328 -65.2325 -65.2322 -65.2322 -65.2321 -65.2306
   -65.2304 -65.2289 -65.2286 -65.2280 -65.2275 -65.2268 -65.2267 -65.2264
   -65.2264 -65.2259 -65.2249 -65.2230 -65.2229 -65.2212 -65.2197 -65.2196
   -65.2196 -65.2187 -65.2183 -65.2160 -65.2160 -65.2153 -65.2127 -65.2121
   -65.2090 -65.2059 -65.0761 -65.0707 -65.0705 -65.0692 -65.0688 -65.0574
   -65.0572 -65.0542 -65.0517 -65.0515 -65.0486 -65.0486 -65.0485 -65.0475
   -65.0474 -65.0355 -65.0354 -65.0335 -65.0332 -65.0321 -65.0298 -65.0297
   -65.0291 -65.0290 -65.0269 -65.0251 -65.0212 -65.0180 -65.0114 -65.0113
   -65.0103 -65.0073 -65.0072 -65.0033 -64.9994 -64.9962 -64.9889 -64.9862
   -64.9857 -64.9844 -64.9834 -64.9827 -64.9821 -64.9811 -64.9811 -64.9601
   -64.9573 -64.9563 -64.9563 -64.9549 -64.9549 -64.9545 -64.9535 -64.9535
   -12.6311  -9.8908  -9.8878  -6.2991  -6.2917  -4.3458  -3.8996  -3.2841
    -2.7492  -2.3861  -2.3432  -2.2966  -1.7860  -1.7448  -1.7408  -1.5856
    -1.5852  -1.2333  -1.1026  -1.1015  -0.9503  -0.5622  -0.5292  -0.5284
    -0.4388  -0.4321  -0.3338  -0.3179  -0.2433  -0.2428  -0.1081  -0.0752
    -0.0702   0.0275   0.0316   0.0320   0.1587   0.1987   0.2099   0.2131
     0.2380   0.3037   0.3038   0.4871   0.4926   0.5229   0.5229   0.5480
     0.5589   0.5589   0.5823   0.5825   0.6284   0.6303   0.6318   0.6324
     0.6445   0.6447   0.6850   0.6850   0.7215   0.7216   0.7503   0.7503
     0.7575   0.8012   0.8017   0.8160   0.8160   0.8381   0.8383   0.8509
     0.8509   0.8838   0.8840   0.9258   0.9942   0.9942   0.9997   1.0243
     1.0243   1.0380   1.0385   1.0737   1.0739   1.1090   1.1116   1.1116
     1.1748   1.1749   1.1989   1.2008   1.2215   1.2216   1.2666   1.2669
     1.2832   1.3038   1.3090   1.3095   1.3374   1.3790   1.3794   1.3980
     1.3981   1.4056   1.4404   1.4431   1.4545   1.4781   1.4783   1.4861
     1.5177   1.5180   1.5466   1.5834   1.5972   1.6070   1.6071   1.6195
     1.6199   1.6202   1.6556   1.6585   1.6646   1.6766   1.6768   1.6923
     1.6965   1.6968   1.7143   1.7179   1.7265   1.7356   1.7477   1.7550
     1.7553   1.7635   1.7676   1.7695   1.7721   1.7888   1.7899   1.7935
     1.7935   1.7975   1.8175   1.8211   1.8301   1.8393   1.8425   1.8532
     1.8546   1.8630   1.8643   1.8987   1.8992   1.9108   1.9110   1.9129
     1.9260   1.9302   1.9362   1.9368   1.9385   1.9415   1.9517   1.9675
     1.9836   1.9933   2.0103   2.0133   2.0231   2.0234   2.0350   2.0427
     2.0438   2.0481   2.0528   2.0768   2.0769   2.0908   2.1144   2.1264
     2.1461   2.1477   2.1657   2.1694   2.1750   2.1752   2.2251   2.2310
     2.2373   2.2538   2.2803   2.2829   2.2896   2.2922   2.3014   2.3026
     2.3300   2.3348   2.3429   2.3440   2.3488   2.3496   2.3830   2.3833
     2.4111   2.4165   2.4200   2.4209   2.4286   2.4541   2.4580   2.4598
     2.4633   2.4669   2.4956   2.5064   2.5105   2.5170   2.5174   2.5348
     2.5390   2.5393   2.5563   2.5597   2.5599   2.5603   2.5695   2.5730
     2.5963   2.6060   2.6446   2.6489   2.6538   2.6818   2.6830   2.6916
     2.6944   2.6949   2.6957   2.6993   2.7186   2.7190   2.7209   2.7335
     2.7364   2.7382   2.7418   2.7478   2.7724   2.7876   2.7876   2.7915
     2.8013   2.8017   2.8218   2.8228   2.8292   2.8306   2.8750   2.8753
     2.8754   2.8840   2.8840   2.8884   2.8986   2.8998   2.9065   2.9100
     2.9104   2.9105   2.9174   2.9176   2.9201   2.9260   2.9342   2.9345
     2.9522   2.9645   2.9646   2.9653   2.9671   2.9723   2.9738   2.9740
     2.9960   3.0049   3.0131   3.0165   3.0171   3.0212   3.0341   3.0347
     3.1053   3.1243   3.1655   3.2578   3.2815   3.2817   3.3583   3.4420
     3.4421   3.6955   3.7471   3.7481   3.7520   3.7660   4.0602   4.2560
     4.4414   4.7218   4.7232   4.9370   5.0238   5.0345   5.0718   5.8086
     5.8088   6.0248   6.1727   6.1862   6.2066   6.2071   6.4537   6.6950
     6.7485   6.8805   6.8897   7.2468   7.3236   7.4095   7.4675   7.7070
     7.7409   7.7510   7.9312   7.9946   8.2005   8.2075   8.2715   8.3597
     8.3799   8.6761   8.6779   8.7658   8.8246   8.9327   9.2263   9.2282
     9.3132   9.3898   9.5676   9.6228   9.7659   9.8171   9.9179   9.9465
     9.9775   9.9806  10.0279  10.0960  10.2587  10.3774  10.3787  10.4702
    10.5061  10.5364  10.6045  10.6285  10.7080  10.7528  10.7560  10.8255
    10.9203  10.9303  10.9423  11.0556  11.0965  11.2212  11.4255  11.4432
    11.4671  11.5052  11.5390  11.5791  11.6654  11.7653  11.9094  11.9950
    12.0182  12.1551  12.2131  12.2968  12.3217  12.4139  12.4766  12.5110
    12.5331  12.5657  12.6131  12.6716  12.8188  12.8207  12.8389  12.8715
    12.9442  12.9974  13.1077  13.1254  13.1763  13.2162  13.2196  13.3296
    13.3949  13.4655

          k = 0.0000-0.5774 0.0000 ( 61408 PWs)   bands (ev):

  -107.8468-107.8457-107.8435-107.8426-107.8417-107.8406-107.8398-107.8393
  -107.8390-107.8388-107.8386-107.8385-107.8382-107.8376-107.8369-107.8367
  -107.8364-107.8353-107.8348-107.8327-107.8325-107.8318-107.8305-107.8305
  -107.8302-107.8293-107.8292-107.8260-107.8253-107.8233-107.8232-107.8215
  -107.8209-107.8209-107.8208-107.8198-107.6121-107.6107-107.6093-107.6082
  -107.6068-107.6061-107.6053-107.6049-107.6048-107.5869-107.5867-107.5842
  -107.5842-107.5818-107.5818-107.5817-107.5816-107.5815 -65.2974 -65.2968
   -65.2945 -65.2931 -65.2893 -65.2892 -65.2881 -65.2879 -65.2872 -65.2870
   -65.2864 -65.2862 -65.2860 -65.2855 -65.2820 -65.2756 -65.2752 -65.2751
   -65.2747 -65.2745 -65.2742 -65.2741 -65.2735 -65.2732 -65.2709 -65.2707
   -65.2704 -65.2700 -65.2634 -65.2632 -65.2623 -65.2620 -65.2616 -65.2612
   -65.2600 -65.2564 -65.2564 -65.2538 -65.2528 -65.2527 -65.2527 -65.2524
   -65.2521 -65.2512 -65.2497 -65.2496 -65.2492 -65.2487 -65.2486 -65.2483
   -65.2455 -65.2455 -65.2454 -65.2448 -65.2447 -65.2444 -65.2439 -65.2428
   -65.2400 -65.2396 -65.2392 -65.2389 -65.2389 -65.2383 -65.2382 -65.2381
   -65.2381 -65.2379 -65.2377 -65.2370 -65.2351 -65.2350 -65.2346 -65.2342
   -65.2340 -65.2335 -65.2320 -65.2317 -65.2310 -65.2307 -65.2307 -65.2303
   -65.2295 -65.2293 -65.2291 -65.2283 -65.2277 -65.2275 -65.2274 -65.2269
   -65.2269 -65.2264 -65.2264 -65.2236 -65.2235 -65.2233 -65.2232 -65.2221
   -65.2211 -65.2198 -65.2194 -65.2194 -65.2174 -65.2172 -65.2158 -65.2155
   -65.2088 -65.2082 -65.0802 -65.0729 -65.0728 -65.0719 -65.0715 -65.0584
   -65.0538 -65.0535 -65.0506 -65.0505 -65.0505 -65.0504 -65.0419 -65.0416
   -65.0409 -65.0407 -65.0335 -65.0332 -65.0324 -65.0319 -65.0318 -65.0301
   -65.0297 -65.0216 -65.0205 -65.0195 -65.0194 -65.0194 -65.0193 -65.0114
   -65.0111 -65.0110 -65.0083 -65.0082 -64.9993 -64.9992 -64.9884 -64.9869
   -64.9858 -64.9845 -64.9834 -64.9824 -64.9817 -64.9813 -64.9813 -64.9590
   -64.9589 -64.9565 -64.9565 -64.9543 -64.9542 -64.9541 -64.9540 -64.9540
   -12.6303  -9.8944  -9.8886  -6.3023  -6.2870  -4.3188  -3.2741  -3.2739
    -2.7216  -2.6762  -2.6757  -2.3898  -1.8422  -1.7712  -1.7544  -1.7522
    -1.7413  -1.7367  -1.2326  -1.2311  -0.7553  -0.7045  -0.5349  -0.5098
    -0.4502  -0.1286   0.0545   0.0552   0.0697   0.0753   0.0754   0.0756
     0.0757   0.1210   0.1629   0.2017   0.2344   0.2405   0.2440   0.2490
     0.2545   0.2733   0.2734   0.2735   0.2737   0.3290   0.3292   0.3294
     0.3294   0.4564   0.4935   0.4935   0.4941   0.4942   0.5321   0.5749
     0.6714   0.6715   0.6716   0.6717   0.6850   0.7076   0.7095   0.7247
     0.7247   0.7253   0.7254   0.8454   0.8454   0.8456   0.8457   0.8679
     0.8686   0.9558   0.9680   0.9681   0.9686   0.9687   1.0056   1.0057
     1.0499   1.0499   1.1197   1.1198   1.1203   1.1205   1.1814   1.1815
     1.2113   1.2119   1.2306   1.2309   1.2316   1.2320   1.2501   1.2501
     1.2832   1.2874   1.3366   1.3505   1.3512   1.3785   1.3792   1.3972
     1.3995   1.4078   1.4078   1.4083   1.4083   1.4644   1.4658   1.4690
     1.4693   1.4697   1.4699   1.5201   1.5237   1.5431   1.5439   1.5446
     1.5446   1.5535   1.5546   1.5546   1.6032   1.6140   1.6388   1.6413
     1.6418   1.6518   1.6579   1.6923   1.6923   1.6927   1.6928   1.6929
     1.7030   1.7078   1.7563   1.7567   1.7649   1.7658   1.7777   1.7780
     1.8121   1.8126   1.8128   1.8130   1.8345   1.8362   1.8371   1.8383
     1.8385   1.8644   1.8648   1.8665   1.8669   1.8982   1.8983   1.9196
     1.9294   1.9298   1.9849   1.9905   1.9923   1.9942   1.9977   1.9982
     2.0017   2.0018   2.0083   2.0110   2.0184   2.0187   2.0200   2.0396
     2.0446   2.0470   2.0499   2.0526   2.0528   2.0925   2.0974   2.1246
     2.1327   2.1329   2.1665   2.2144   2.2147   2.2151   2.2167   2.2203
     2.2213   2.2220   2.2290   2.2295   2.2367   2.2493   2.2559   2.2846
     2.2933   2.2938   2.2947   2.3097   2.3145   2.3146   2.3148   2.3165
     2.3169   2.3212   2.3403   2.3405   2.3481   2.3494   2.3500   2.4279
     2.4542   2.4708   2.4710   2.4986   2.4986   2.4992   2.4998   2.5307
     2.5313   2.5354   2.5481   2.5700   2.5711   2.5746   2.5749   2.5850
     2.5972   2.6100   2.6117   2.6118   2.6120   2.6121   2.6249   2.6448
     2.6452   2.6469   2.6498   2.7007   2.7008   2.7017   2.7020   2.7125
     2.7134   2.7375   2.7378   2.7667   2.7671   2.7723   2.7736   2.7991
     2.7991   2.8232   2.8264   2.8313   2.8470   2.8862   2.8880   2.8999
     2.9015   2.9081   2.9083   2.9241   2.9368   2.9369   2.9407   2.9410
     2.9428   2.9440   2.9602   2.9642   2.9643   2.9645   2.9648   2.9823
     2.9824   2.9827   2.9919   2.9956   3.0101   3.0119   3.0301   3.0303
     3.0306   3.0325   3.0383   3.0492   3.0683   3.0813   3.0815   3.0824
     3.0825   3.1843   3.2037   3.7176   3.7360   3.7393   3.7463   4.2478
     4.2930   4.2931   4.2933   4.2934   4.5622   4.5629   4.5637   4.5639
     4.9070   4.9150   4.9341   5.0368   5.0704   5.1158   5.1201   5.1219
     5.1247   5.4064   5.7452   6.0007   6.0222   6.0402   6.0846   6.1015
     6.1043   6.1119   6.1626   6.5583   6.6162   7.1992   7.2929   7.4129
     7.4133   7.4192   7.6058   7.9333   7.9811   8.1467   8.2740   8.4087
     8.5357   8.5395   8.5404   8.5612   8.8893   8.9229   8.9266   9.1806
     9.1872   9.1884   9.1986   9.2471   9.4608   9.5989   9.6653   9.7758
     9.8000   9.8505   9.8734   9.8762   9.9089  10.2671  10.3243  10.3596
    10.3956  10.4306  10.4810  10.4887  10.5098  10.8055  10.8608  11.0213
    11.0908  11.1749  11.2545  11.2697  11.3380  11.3856  11.4267  11.4530
    11.4806  11.5602  11.7130  12.0328  12.1090  12.1380  12.2084  12.2514
    12.2637  12.3020  12.4438  12.5169  12.7498  12.7861  12.8905  12.9568
    12.9692  13.0246  13.0348  13.0823  13.1003  13.2049  13.2112  13.2308
    13.2396  13.2809  13.3014  13.3275  13.4754  13.6084  13.6691  13.6699
    13.7321  13.8252

          k = 0.2500-0.7217 0.0000 ( 61343 PWs)   bands (ev):

  -107.8469-107.8452-107.8441-107.8427-107.8406-107.8406-107.8403-107.8396
  -107.8394-107.8388-107.8385-107.8383-107.8381-107.8373-107.8371-107.8367
  -107.8363-107.8355-107.8342-107.8337-107.8318-107.8316-107.8309-107.8305
  -107.8302-107.8294-107.8291-107.8261-107.8249-107.8243-107.8223-107.8217
  -107.8212-107.8209-107.8207-107.8197-107.6122-107.6104-107.6098-107.6079
  -107.6068-107.6061-107.6055-107.6048-107.6047-107.5872-107.5858-107.5856
  -107.5828-107.5827-107.5817-107.5817-107.5815-107.5812 -65.2984 -65.2940
   -65.2933 -65.2926 -65.2921 -65.2913 -65.2909 -65.2896 -65.2879 -65.2863
   -65.2860 -65.2850 -65.2822 -65.2805 -65.2800 -65.2797 -65.2796 -65.2771
   -65.2744 -65.2735 -65.2734 -65.2733 -65.2729 -65.2715 -65.2712 -65.2704
   -65.2696 -65.2693 -65.2668 -65.2662 -65.2618 -65.2611 -65.2607 -65.2599
   -65.2575 -65.2572 -65.2566 -65.2562 -65.2559 -65.2533 -65.2526 -65.2523
   -65.2515 -65.2508 -65.2503 -65.2499 -65.2491 -65.2466 -65.2463 -65.2461
   -65.2459 -65.2457 -65.2455 -65.2445 -65.2441 -65.2438 -65.2433 -65.2423
   -65.2419 -65.2406 -65.2404 -65.2402 -65.2400 -65.2395 -65.2379 -65.2369
   -65.2366 -65.2365 -65.2362 -65.2359 -65.2353 -65.2350 -65.2347 -65.2345
   -65.2342 -65.2332 -65.2329 -65.2322 -65.2318 -65.2314 -65.2310 -65.2299
   -65.2294 -65.2288 -65.2287 -65.2286 -65.2284 -65.2283 -65.2282 -65.2280
   -65.2263 -65.2259 -65.2256 -65.2238 -65.2235 -65.2228 -65.2225 -65.2225
   -65.2217 -65.2215 -65.2195 -65.2184 -65.2184 -65.2174 -65.2138 -65.2119
   -65.2118 -65.2081 -65.0783 -65.0776 -65.0751 -65.0685 -65.0649 -65.0642
   -65.0561 -65.0561 -65.0533 -65.0467 -65.0452 -65.0433 -65.0428 -65.0427
   -65.0422 -65.0419 -65.0369 -65.0362 -65.0355 -65.0353 -65.0289 -65.0245
   -65.0242 -65.0232 -65.0212 -65.0203 -65.0203 -65.0202 -65.0146 -65.0145
   -65.0137 -65.0137 -65.0071 -65.0026 -65.0025 -64.9985 -64.9884 -64.9867
   -64.9861 -64.9843 -64.9833 -64.9824 -64.9818 -64.9813 -64.9812 -64.9593
   -64.9580 -64.9578 -64.9552 -64.9551 -64.9542 -64.9542 -64.9540 -64.9537
   -12.6303  -9.8929  -9.8900  -6.2984  -6.2909  -4.3190  -3.4795  -2.8749
    -2.7212  -2.6734  -2.6732  -2.3896  -2.1010  -2.1001  -1.9569  -1.8076
    -1.7689  -1.2472  -1.2408  -0.8844  -0.6628  -0.6625  -0.5292  -0.3124
    -0.3116  -0.2703  -0.2450  -0.0715  -0.0715  -0.0618   0.1008   0.1031
     0.1231   0.1233   0.1393   0.1432   0.1820   0.1895   0.2012   0.2016
     0.2186   0.3173   0.3206   0.3237   0.3238   0.3958   0.4012   0.4615
     0.4623   0.4738   0.4848   0.5127   0.5128   0.5154   0.5337   0.5349
     0.6005   0.6009   0.6278   0.6290   0.6593   0.6593   0.6851   0.6939
     0.6942   0.7611   0.7612   0.7888   0.8104   0.8222   0.8225   0.8965
     0.8978   0.9488   0.9682   0.9686   0.9965   0.9967   1.0548   1.0638
     1.0643   1.0798   1.0799   1.0932   1.1322   1.1593   1.1596   1.2023
     1.2027   1.2290   1.2335   1.2346   1.2361   1.2528   1.2529   1.3113
     1.3118   1.3150   1.3154   1.3191   1.3309   1.3484   1.3496   1.3620
     1.3629   1.3899   1.3915   1.4138   1.4144   1.4157   1.4348   1.4601
     1.5007   1.5083   1.5087   1.5090   1.5101   1.5387   1.5574   1.5606
     1.5623   1.5993   1.5999   1.6003   1.6034   1.6098   1.6329   1.6538
     1.6540   1.6700   1.6701   1.6940   1.6978   1.7081   1.7083   1.7178
     1.7188   1.7346   1.7351   1.7523   1.7526   1.7679   1.7758   1.7994
     1.8025   1.8101   1.8197   1.8359   1.8375   1.8377   1.8457   1.8535
     1.8545   1.8651   1.8653   1.8726   1.8795   1.8822   1.8836   1.8839
     1.9058   1.9122   1.9344   1.9444   1.9505   1.9566   1.9619   1.9630
     1.9718   1.9720   1.9723   1.9760   1.9808   1.9821   1.9863   1.9869
     2.0423   2.0433   2.0907   2.0973   2.1157   2.1186   2.1192   2.1231
     2.1351   2.1406   2.1504   2.1505   2.1738   2.1898   2.1941   2.1950
     2.2177   2.2204   2.2531   2.2600   2.2630   2.2862   2.2871   2.2889
     2.2900   2.2917   2.2937   2.2964   2.2992   2.3074   2.3264   2.3301
     2.3726   2.3759   2.3770   2.3797   2.3853   2.3892   2.3959   2.4201
     2.4248   2.4294   2.4436   2.4670   2.4675   2.4869   2.4933   2.4939
     2.5050   2.5080   2.5385   2.5468   2.5517   2.5529   2.5792   2.5802
     2.6017   2.6075   2.6081   2.6264   2.6282   2.6498   2.6508   2.6521
     2.6550   2.6586   2.6705   2.6707   2.6756   2.6823   2.6874   2.7051
     2.7405   2.7459   2.7464   2.7507   2.7970   2.7974   2.8086   2.8114
     2.8406   2.8528   2.8537   2.8596   2.8601   2.8730   2.8766   2.9040
     2.9051   2.9053   2.9145   2.9148   2.9253   2.9276   2.9290   2.9295
     2.9320   2.9382   2.9385   2.9396   2.9423   2.9564   2.9573   2.9716
     2.9723   2.9802   2.9830   2.9832   2.9947   3.0105   3.0154   3.0217
     3.0223   3.0393   3.0693   3.0695   3.0814   3.1024   3.1030   3.2586
     3.2651   3.3706   3.3708   3.4718   3.4724   3.5790   3.7960   3.7996
     4.1774   4.1929   4.2809   4.2813   4.2949   4.5566   4.6640   4.6734
     4.6885   4.6887   4.8225   5.1332   5.1609   5.1620   5.6071   5.6455
     5.6692   5.7271   5.8991   5.9153   5.9170   6.0468   6.0559   6.1377
     6.2130   6.5829   6.6591   6.6622   6.8331   6.9154   6.9785   7.0401
     7.0412   7.2835   7.3285   7.3683   7.5854   7.7687   7.8723   7.9423
     8.4560   8.4653   8.4738   8.5685   8.7296   9.0183   9.1167   9.1444
     9.2121   9.3090   9.3199   9.4584   9.4710   9.6469   9.6480   9.6863
     9.7902   9.8717  10.0110  10.1166  10.1570  10.3450  10.4111  10.4556
    10.5052  10.5923  10.6847  10.7948  10.8362  11.0554  11.1037  11.1680
    11.2445  11.2597  11.4396  11.4648  11.4711  11.5928  11.6173  11.6946
    11.6985  11.7969  11.8441  11.8489  11.9953  12.0902  12.1395  12.1596
    12.2722  12.3584  12.3958  12.4222  12.4860  12.5182  12.5764  12.6092
    12.7062  12.7251  12.8113  12.8860  12.9380  12.9817  13.1479  13.2449
    13.2668  13.2963  13.3710  13.4101  13.4741  13.5145  13.5306  13.6336
    13.6549  13.6834

          k =-0.2500 0.1443 0.0000 ( 61417 PWs)   bands (ev):

  -107.8478-107.8446-107.8430-107.8423-107.8418-107.8408-107.8402-107.8399
  -107.8394-107.8386-107.8385-107.8379-107.8378-107.8376-107.8373-107.8366
  -107.8365-107.8362-107.8335-107.8325-107.8323-107.8318-107.8310-107.8309
  -107.8303-107.8291-107.8291-107.8268-107.8242-107.8231-107.8230-107.8219
  -107.8217-107.8211-107.8203-107.8197-107.6127-107.6099-107.6092-107.6081
  -107.6070-107.6063-107.6057-107.6047-107.6046-107.5880-107.5851-107.5840
  -107.5840-107.5825-107.5825-107.5821-107.5810-107.5810 -65.3010 -65.2920
   -65.2914 -65.2902 -65.2892 -65.2891 -65.2885 -65.2882 -65.2853 -65.2853
   -65.2844 -65.2843 -65.2827 -65.2825 -65.2780 -65.2766 -65.2765 -65.2746
   -65.2739 -65.2729 -65.2727 -65.2726 -65.2724 -65.2721 -65.2702 -65.2702
   -65.2697 -65.2694 -65.2655 -65.2654 -65.2626 -65.2623 -65.2622 -65.2610
   -65.2609 -65.2603 -65.2596 -65.2595 -65.2575 -65.2574 -65.2551 -65.2551
   -65.2518 -65.2517 -65.2514 -65.2511 -65.2503 -65.2502 -65.2493 -65.2484
   -65.2479 -65.2470 -65.2466 -65.2455 -65.2453 -65.2450 -65.2443 -65.2437
   -65.2435 -65.2418 -65.2415 -65.2414 -65.2411 -65.2411 -65.2409 -65.2385
   -65.2384 -65.2364 -65.2363 -65.2355 -65.2355 -65.2341 -65.2339 -65.2337
   -65.2331 -65.2329 -65.2328 -65.2325 -65.2322 -65.2322 -65.2321 -65.2306
   -65.2304 -65.2289 -65.2286 -65.2280 -65.2275 -65.2268 -65.2267 -65.2264
   -65.2264 -65.2259 -65.2249 -65.2230 -65.2229 -65.2212 -65.2197 -65.2196
   -65.2196 -65.2187 -65.2183 -65.2160 -65.2160 -65.2153 -65.2127 -65.2121
   -65.2090 -65.2059 -65.0761 -65.0707 -65.0705 -65.0692 -65.0688 -65.0574
   -65.0572 -65.0542 -65.0517 -65.0515 -65.0486 -65.0486 -65.0485 -65.0475
   -65.0474 -65.0355 -65.0354 -65.0335 -65.0332 -65.0321 -65.0298 -65.0297
   -65.0291 -65.0290 -65.0269 -65.0251 -65.0212 -65.0180 -65.0114 -65.0113
   -65.0103 -65.0073 -65.0072 -65.0033 -64.9994 -64.9962 -64.9889 -64.9862
   -64.9857 -64.9844 -64.9834 -64.9827 -64.9820 -64.9811 -64.9811 -64.9601
   -64.9573 -64.9563 -64.9563 -64.9549 -64.9549 -64.9545 -64.9535 -64.9535
   -12.6311  -9.8906  -9.8880  -6.2995  -6.2912  -4.3458  -3.8996  -3.2841
    -2.7492  -2.3861  -2.3432  -2.2966  -1.7859  -1.7448  -1.7409  -1.5856
    -1.5852  -1.2333  -1.1026  -1.1015  -0.9503  -0.5622  -0.5292  -0.5284
    -0.4388  -0.4321  -0.3338  -0.3179  -0.2433  -0.2428  -0.1081  -0.0752
    -0.0702   0.0275   0.0316   0.0320   0.1589   0.1986   0.2098   0.2131
     0.2380   0.3037   0.3038   0.4871   0.4926   0.5229   0.5229   0.5480
     0.5589   0.5589   0.5823   0.5825   0.6284   0.6303   0.6318   0.6324
     0.6445   0.6447   0.6850   0.6850   0.7215   0.7216   0.7503   0.7503
     0.7575   0.8012   0.8017   0.8160   0.8160   0.8381   0.8383   0.8509
     0.8509   0.8838   0.8840   0.9258   0.9942   0.9942   0.9997   1.0243
     1.0243   1.0380   1.0385   1.0737   1.0739   1.1090   1.1116   1.1116
     1.1748   1.1749   1.1989   1.2008   1.2215   1.2216   1.2666   1.2669
     1.2832   1.3038   1.3090   1.3095   1.3374   1.3790   1.3794   1.3980
     1.3981   1.4056   1.4404   1.4431   1.4545   1.4781   1.4783   1.4861
     1.5177   1.5180   1.5466   1.5834   1.5972   1.6070   1.6071   1.6195
     1.6199   1.6202   1.6556   1.6585   1.6646   1.6766   1.6768   1.6923
     1.6965   1.6968   1.7143   1.7179   1.7265   1.7356   1.7477   1.7550
     1.7553   1.7635   1.7676   1.7695   1.7721   1.7888   1.7899   1.7935
     1.7935   1.7975   1.8175   1.8211   1.8301   1.8393   1.8425   1.8532
     1.8546   1.8630   1.8643   1.8987   1.8992   1.9108   1.9110   1.9129
     1.9260   1.9302   1.9362   1.9368   1.9385   1.9415   1.9517   1.9675
     1.9836   1.9933   2.0103   2.0133   2.0231   2.0234   2.0350   2.0427
     2.0438   2.0481   2.0528   2.0768   2.0769   2.0908   2.1144   2.1264
     2.1461   2.1477   2.1657   2.1694   2.1750   2.1752   2.2251   2.2309
     2.2373   2.2538   2.2803   2.2828   2.2896   2.2922   2.3014   2.3026
     2.3300   2.3348   2.3429   2.3440   2.3488   2.3496   2.3830   2.3833
     2.4111   2.4165   2.4200   2.4209   2.4286   2.4541   2.4580   2.4598
     2.4633   2.4669   2.4956   2.5064   2.5105   2.5170   2.5174   2.5348
     2.5390   2.5393   2.5563   2.5597   2.5599   2.5603   2.5695   2.5730
     2.5963   2.6060   2.6446   2.6489   2.6538   2.6818   2.6830   2.6916
     2.6944   2.6949   2.6957   2.6993   2.7186   2.7190   2.7209   2.7335
     2.7364   2.7382   2.7418   2.7478   2.7724   2.7876   2.7876   2.7915
     2.8013   2.8017   2.8218   2.8228   2.8292   2.8306   2.8750   2.8753
     2.8754   2.8840   2.8840   2.8884   2.8986   2.8998   2.9065   2.9100
     2.9104   2.9105   2.9174   2.9176   2.9201   2.9260   2.9342   2.9345
     2.9522   2.9645   2.9646   2.9653   2.9671   2.9723   2.9738   2.9740
     2.9960   3.0049   3.0131   3.0165   3.0171   3.0212   3.0341   3.0347
     3.1053   3.1243   3.1655   3.2578   3.2815   3.2817   3.3583   3.4420
     3.4421   3.6955   3.7471   3.7481   3.7520   3.7660   4.0602   4.2560
     4.4414   4.7218   4.7232   4.9370   5.0238   5.0345   5.0718   5.8086
     5.8088   6.0248   6.1727   6.1862   6.2066   6.2071   6.4537   6.6950
     6.7485   6.8805   6.8897   7.2467   7.3237   7.4094   7.4675   7.7070
     7.7409   7.7510   7.9312   7.9946   8.2005   8.2075   8.2715   8.3597
     8.3799   8.6761   8.6779   8.7658   8.8246   8.9326   9.2263   9.2282
     9.3132   9.3898   9.5677   9.6228   9.7659   9.8171   9.9179   9.9464
     9.9775   9.9806  10.0279  10.0960  10.2587  10.3774  10.3787  10.4702
    10.5060  10.5364  10.6045  10.6285  10.7081  10.7528  10.7559  10.8255
    10.9203  10.9303  10.9423  11.0556  11.0966  11.2212  11.4255  11.4432
    11.4671  11.5052  11.5390  11.5791  11.6654  11.7653  11.9095  11.9950
    12.0183  12.1551  12.2131  12.2968  12.3217  12.4139  12.4766  12.5110
    12.5331  12.5657  12.6131  12.6716  12.8189  12.8207  12.8389  12.8715
    12.9442  12.9974  13.1077  13.1255  13.1763  13.2162  13.2196  13.3296
    13.3949  13.4655

          k = 0.2500 0.1443 0.0000 ( 61417 PWs)   bands (ev):

  -107.8478-107.8446-107.8430-107.8423-107.8418-107.8408-107.8402-107.8399
  -107.8394-107.8386-107.8385-107.8379-107.8378-107.8376-107.8373-107.8366
  -107.8365-107.8362-107.8335-107.8325-107.8323-107.8318-107.8310-107.8309
  -107.8303-107.8291-107.8291-107.8268-107.8242-107.8231-107.8230-107.8219
  -107.8217-107.8211-107.8203-107.8197-107.6127-107.6099-107.6092-107.6081
  -107.6070-107.6063-107.6057-107.6047-107.6046-107.5880-107.5851-107.5840
  -107.5840-107.5825-107.5825-107.5821-107.5810-107.5810 -65.3010 -65.2920
   -65.2914 -65.2902 -65.2892 -65.2891 -65.2885 -65.2882 -65.2853 -65.2853
   -65.2844 -65.2843 -65.2827 -65.2825 -65.2780 -65.2766 -65.2765 -65.2746
   -65.2739 -65.2729 -65.2727 -65.2726 -65.2724 -65.2721 -65.2702 -65.2702
   -65.2697 -65.2694 -65.2655 -65.2654 -65.2626 -65.2623 -65.2622 -65.2610
   -65.2609 -65.2603 -65.2596 -65.2595 -65.2575 -65.2574 -65.2551 -65.2551
   -65.2518 -65.2517 -65.2514 -65.2511 -65.2503 -65.2502 -65.2493 -65.2484
   -65.2479 -65.2470 -65.2466 -65.2455 -65.2453 -65.2450 -65.2443 -65.2437
   -65.2435 -65.2418 -65.2415 -65.2414 -65.2411 -65.2411 -65.2409 -65.2385
   -65.2384 -65.2364 -65.2363 -65.2355 -65.2355 -65.2341 -65.2339 -65.2337
   -65.2331 -65.2329 -65.2328 -65.2325 -65.2322 -65.2322 -65.2321 -65.2306
   -65.2304 -65.2289 -65.2286 -65.2280 -65.2275 -65.2268 -65.2267 -65.2264
   -65.2264 -65.2259 -65.2249 -65.2230 -65.2229 -65.2212 -65.2197 -65.2196
   -65.2196 -65.2187 -65.2183 -65.2160 -65.2160 -65.2153 -65.2127 -65.2121
   -65.2090 -65.2059 -65.0761 -65.0707 -65.0705 -65.0692 -65.0688 -65.0574
   -65.0572 -65.0542 -65.0517 -65.0515 -65.0486 -65.0486 -65.0485 -65.0475
   -65.0474 -65.0355 -65.0354 -65.0335 -65.0332 -65.0321 -65.0298 -65.0297
   -65.0291 -65.0290 -65.0269 -65.0251 -65.0212 -65.0180 -65.0114 -65.0113
   -65.0103 -65.0073 -65.0072 -65.0033 -64.9994 -64.9962 -64.9889 -64.9862
   -64.9857 -64.9844 -64.9834 -64.9827 -64.9820 -64.9811 -64.9811 -64.9601
   -64.9573 -64.9563 -64.9563 -64.9549 -64.9549 -64.9545 -64.9535 -64.9535
   -12.6311  -9.8907  -9.8880  -6.2994  -6.2913  -4.3458  -3.8996  -3.2841
    -2.7492  -2.3861  -2.3432  -2.2966  -1.7860  -1.7448  -1.7408  -1.5856
    -1.5852  -1.2333  -1.1026  -1.1015  -0.9503  -0.5622  -0.5292  -0.5284
    -0.4388  -0.4321  -0.3338  -0.3179  -0.2433  -0.2428  -0.1081  -0.0752
    -0.0702   0.0275   0.0316   0.0320   0.1588   0.1986   0.2098   0.2131
     0.2380   0.3037   0.3038   0.4871   0.4926   0.5229   0.5229   0.5480
     0.5589   0.5589   0.5823   0.5825   0.6284   0.6303   0.6318   0.6324
     0.6445   0.6447   0.6850   0.6850   0.7215   0.7216   0.7503   0.7503
     0.7575   0.8012   0.8017   0.8160   0.8160   0.8381   0.8383   0.8509
     0.8509   0.8838   0.8840   0.9258   0.9942   0.9942   0.9997   1.0243
     1.0243   1.0380   1.0385   1.0737   1.0739   1.1090   1.1116   1.1116
     1.1748   1.1749   1.1989   1.2008   1.2215   1.2216   1.2666   1.2669
     1.2832   1.3038   1.3090   1.3095   1.3374   1.3790   1.3794   1.3980
     1.3981   1.4056   1.4404   1.4431   1.4545   1.4781   1.4783   1.4861
     1.5177   1.5180   1.5466   1.5834   1.5972   1.6070   1.6071   1.6195
     1.6199   1.6202   1.6556   1.6585   1.6646   1.6766   1.6768   1.6923
     1.6965   1.6968   1.7143   1.7179   1.7265   1.7356   1.7477   1.7550
     1.7553   1.7635   1.7676   1.7695   1.7721   1.7888   1.7899   1.7935
     1.7935   1.7975   1.8175   1.8211   1.8301   1.8393   1.8425   1.8532
     1.8546   1.8630   1.8643   1.8987   1.8992   1.9108   1.9110   1.9129
     1.9260   1.9302   1.9362   1.9368   1.9385   1.9415   1.9517   1.9675
     1.9836   1.9933   2.0103   2.0133   2.0231   2.0234   2.0350   2.0427
     2.0438   2.0481   2.0528   2.0768   2.0769   2.0908   2.1144   2.1264
     2.1461   2.1477   2.1657   2.1694   2.1750   2.1752   2.2251   2.2309
     2.2373   2.2538   2.2803   2.2829   2.2896   2.2922   2.3014   2.3026
     2.3300   2.3348   2.3429   2.3440   2.3488   2.3496   2.3830   2.3833
     2.4111   2.4165   2.4200   2.4209   2.4286   2.4541   2.4580   2.4598
     2.4633   2.4669   2.4956   2.5064   2.5105   2.5170   2.5174   2.5348
     2.5390   2.5393   2.5563   2.5597   2.5599   2.5603   2.5695   2.5730
     2.5963   2.6060   2.6446   2.6489   2.6538   2.6818   2.6830   2.6916
     2.6944   2.6949   2.6957   2.6993   2.7186   2.7190   2.7209   2.7335
     2.7364   2.7382   2.7418   2.7478   2.7724   2.7876   2.7876   2.7915
     2.8013   2.8017   2.8218   2.8228   2.8292   2.8306   2.8750   2.8753
     2.8754   2.8840   2.8840   2.8884   2.8986   2.8998   2.9065   2.9100
     2.9104   2.9105   2.9174   2.9176   2.9201   2.9260   2.9342   2.9345
     2.9522   2.9645   2.9646   2.9653   2.9671   2.9723   2.9738   2.9740
     2.9960   3.0049   3.0131   3.0165   3.0171   3.0212   3.0341   3.0347
     3.1053   3.1243   3.1655   3.2578   3.2815   3.2817   3.3583   3.4420
     3.4421   3.6955   3.7471   3.7481   3.7520   3.7660   4.0602   4.2560
     4.4414   4.7218   4.7232   4.9370   5.0238   5.0345   5.0718   5.8086
     5.8088   6.0248   6.1727   6.1862   6.2066   6.2071   6.4537   6.6950
     6.7485   6.8805   6.8897   7.2467   7.3237   7.4094   7.4675   7.7070
     7.7409   7.7510   7.9312   7.9946   8.2005   8.2075   8.2715   8.3597
     8.3799   8.6761   8.6779   8.7658   8.8246   8.9326   9.2263   9.2282
     9.3132   9.3898   9.5677   9.6228   9.7659   9.8171   9.9179   9.9465
     9.9775   9.9806  10.0279  10.0960  10.2587  10.3774  10.3787  10.4702
    10.5061  10.5364  10.6045  10.6285  10.7081  10.7528  10.7559  10.8255
    10.9203  10.9303  10.9423  11.0556  11.0966  11.2212  11.4255  11.4432
    11.4671  11.5052  11.5390  11.5791  11.6654  11.7653  11.9095  11.9950
    12.0183  12.1551  12.2131  12.2968  12.3217  12.4139  12.4766  12.5110
    12.5331  12.5657  12.6131  12.6716  12.8189  12.8207  12.8389  12.8715
    12.9442  12.9974  13.1077  13.1254  13.1763  13.2162  13.2196  13.3296
    13.3949  13.4655

          k = 0.5000-0.2887 0.0000 ( 61408 PWs)   bands (ev):

  -107.8468-107.8457-107.8435-107.8426-107.8417-107.8406-107.8398-107.8393
  -107.8390-107.8388-107.8386-107.8385-107.8382-107.8376-107.8369-107.8367
  -107.8364-107.8353-107.8348-107.8327-107.8325-107.8318-107.8305-107.8305
  -107.8302-107.8293-107.8292-107.8260-107.8253-107.8233-107.8232-107.8215
  -107.8209-107.8209-107.8208-107.8198-107.6121-107.6108-107.6093-107.6083
  -107.6068-107.6061-107.6053-107.6049-107.6048-107.5869-107.5867-107.5842
  -107.5842-107.5818-107.5818-107.5817-107.5816-107.5815 -65.2974 -65.2968
   -65.2945 -65.2931 -65.2893 -65.2892 -65.2881 -65.2879 -65.2872 -65.2870
   -65.2863 -65.2861 -65.2860 -65.2855 -65.2820 -65.2756 -65.2752 -65.2751
   -65.2747 -65.2745 -65.2742 -65.2741 -65.2735 -65.2732 -65.2709 -65.2707
   -65.2704 -65.2700 -65.2634 -65.2632 -65.2623 -65.2620 -65.2616 -65.2612
   -65.2600 -65.2564 -65.2564 -65.2538 -65.2528 -65.2527 -65.2527 -65.2524
   -65.2521 -65.2512 -65.2497 -65.2496 -65.2492 -65.2487 -65.2486 -65.2483
   -65.2455 -65.2455 -65.2454 -65.2448 -65.2447 -65.2444 -65.2439 -65.2428
   -65.2400 -65.2396 -65.2392 -65.2389 -65.2389 -65.2383 -65.2382 -65.2381
   -65.2381 -65.2379 -65.2377 -65.2370 -65.2351 -65.2350 -65.2346 -65.2342
   -65.2340 -65.2335 -65.2320 -65.2317 -65.2310 -65.2307 -65.2307 -65.2303
   -65.2295 -65.2293 -65.2291 -65.2283 -65.2277 -65.2275 -65.2274 -65.2269
   -65.2269 -65.2264 -65.2264 -65.2236 -65.2235 -65.2233 -65.2232 -65.2221
   -65.2211 -65.2198 -65.2194 -65.2194 -65.2174 -65.2172 -65.2158 -65.2155
   -65.2088 -65.2083 -65.0802 -65.0729 -65.0728 -65.0719 -65.0715 -65.0584
   -65.0538 -65.0535 -65.0506 -65.0505 -65.0505 -65.0504 -65.0419 -65.0416
   -65.0409 -65.0407 -65.0335 -65.0332 -65.0324 -65.0319 -65.0318 -65.0301
   -65.0297 -65.0215 -65.0205 -65.0195 -65.0194 -65.0194 -65.0193 -65.0114
   -65.0111 -65.0110 -65.0083 -65.0082 -64.9993 -64.9992 -64.9884 -64.9870
   -64.9857 -64.9845 -64.9834 -64.9824 -64.9816 -64.9813 -64.9813 -64.9590
   -64.9589 -64.9565 -64.9565 -64.9543 -64.9542 -64.9541 -64.9540 -64.9540
   -12.6303  -9.8941  -9.8888  -6.3028  -6.2866  -4.3188  -3.2741  -3.2739
    -2.7216  -2.6762  -2.6757  -2.3898  -1.8421  -1.7712  -1.7544  -1.7523
    -1.7413  -1.7367  -1.2326  -1.2311  -0.7553  -0.7045  -0.5349  -0.5098
    -0.4502  -0.1286   0.0545   0.0552   0.0697   0.0753   0.0754   0.0756
     0.0757   0.1212   0.1629   0.2015   0.2344   0.2405   0.2440   0.2490
     0.2545   0.2733   0.2734   0.2735   0.2737   0.3290   0.3292   0.3294
     0.3295   0.4564   0.4935   0.4935   0.4941   0.4942   0.5321   0.5749
     0.6714   0.6715   0.6716   0.6717   0.6850   0.7076   0.7095   0.7247
     0.7247   0.7253   0.7254   0.8454   0.8454   0.8456   0.8457   0.8679
     0.8686   0.9558   0.9680   0.9681   0.9686   0.9687   1.0056   1.0057
     1.0499   1.0499   1.1197   1.1198   1.1203   1.1205   1.1814   1.1815
     1.2113   1.2119   1.2306   1.2309   1.2316   1.2320   1.2501   1.2501
     1.2832   1.2874   1.3366   1.3505   1.3512   1.3785   1.3792   1.3972
     1.3995   1.4078   1.4078   1.4083   1.4083   1.4644   1.4658   1.4690
     1.4693   1.4697   1.4699   1.5201   1.5237   1.5431   1.5439   1.5446
     1.5446   1.5535   1.5546   1.5546   1.6032   1.6140   1.6388   1.6413
     1.6418   1.6518   1.6579   1.6923   1.6923   1.6927   1.6928   1.6929
     1.7030   1.7078   1.7563   1.7567   1.7649   1.7658   1.7777   1.7780
     1.8121   1.8126   1.8128   1.8130   1.8345   1.8362   1.8371   1.8383
     1.8385   1.8644   1.8648   1.8665   1.8669   1.8982   1.8983   1.9196
     1.9294   1.9298   1.9849   1.9905   1.9923   1.9942   1.9977   1.9982
     2.0017   2.0018   2.0083   2.0110   2.0184   2.0187   2.0200   2.0396
     2.0446   2.0470   2.0499   2.0526   2.0528   2.0926   2.0974   2.1246
     2.1327   2.1329   2.1665   2.2144   2.2147   2.2151   2.2167   2.2203
     2.2213   2.2220   2.2290   2.2295   2.2367   2.2493   2.2559   2.2846
     2.2933   2.2938   2.2947   2.3097   2.3145   2.3146   2.3148   2.3165
     2.3169   2.3212   2.3403   2.3405   2.3481   2.3494   2.3500   2.4279
     2.4542   2.4708   2.4710   2.4986   2.4986   2.4992   2.4998   2.5307
     2.5313   2.5354   2.5481   2.5700   2.5711   2.5746   2.5749   2.5850
     2.5972   2.6100   2.6117   2.6118   2.6120   2.6121   2.6249   2.6448
     2.6452   2.6469   2.6498   2.7007   2.7008   2.7017   2.7020   2.7125
     2.7134   2.7375   2.7378   2.7667   2.7671   2.7723   2.7736   2.7991
     2.7991   2.8232   2.8264   2.8313   2.8470   2.8862   2.8880   2.8999
     2.9015   2.9081   2.9083   2.9241   2.9368   2.9369   2.9407   2.9410
     2.9428   2.9440   2.9602   2.9642   2.9643   2.9645   2.9648   2.9823
     2.9824   2.9826   2.9919   2.9956   3.0101   3.0119   3.0301   3.0303
     3.0306   3.0325   3.0383   3.0492   3.0683   3.0813   3.0815   3.0824
     3.0825   3.1843   3.2037   3.7176   3.7360   3.7393   3.7463   4.2478
     4.2930   4.2931   4.2934   4.2934   4.5622   4.5629   4.5636   4.5639
     4.9070   4.9150   4.9341   5.0368   5.0704   5.1158   5.1201   5.1219
     5.1247   5.4064   5.7452   6.0007   6.0222   6.0402   6.0846   6.1015
     6.1043   6.1119   6.1626   6.5583   6.6162   7.1993   7.2928   7.4129
     7.4133   7.4192   7.6059   7.9333   7.9810   8.1467   8.2740   8.4087
     8.5357   8.5395   8.5404   8.5612   8.8893   8.9228   8.9266   9.1806
     9.1872   9.1884   9.1986   9.2471   9.4608   9.5989   9.6654   9.7758
     9.8000   9.8505   9.8735   9.8762   9.9089  10.2671  10.3243  10.3596
    10.3956  10.4306  10.4810  10.4886  10.5098  10.8055  10.8607  11.0214
    11.0908  11.1749  11.2545  11.2697  11.3379  11.3856  11.4267  11.4531
    11.4806  11.5602  11.7130  12.0327  12.1090  12.1381  12.2083  12.2514
    12.2637  12.3020  12.4441  12.5168  12.7498  12.7862  12.8905  12.9568
    12.9692  13.0246  13.0348  13.0823  13.1003  13.2049  13.2112  13.2308
    13.2396  13.2809  13.3012  13.3275  13.4755  13.6084  13.6691  13.6699
    13.7321  13.8252

          k =-0.5000-0.2887 0.0000 ( 61408 PWs)   bands (ev):

  -107.8468-107.8457-107.8435-107.8426-107.8417-107.8406-107.8398-107.8393
  -107.8390-107.8388-107.8386-107.8385-107.8382-107.8376-107.8369-107.8367
  -107.8364-107.8353-107.8348-107.8327-107.8325-107.8318-107.8305-107.8305
  -107.8302-107.8293-107.8292-107.8260-107.8253-107.8233-107.8232-107.8215
  -107.8209-107.8209-107.8208-107.8198-107.6121-107.6108-107.6093-107.6083
  -107.6068-107.6061-107.6053-107.6049-107.6048-107.5869-107.5867-107.5842
  -107.5842-107.5818-107.5818-107.5817-107.5816-107.5815 -65.2974 -65.2968
   -65.2945 -65.2931 -65.2893 -65.2892 -65.2881 -65.2879 -65.2872 -65.2870
   -65.2863 -65.2861 -65.2860 -65.2855 -65.2820 -65.2756 -65.2752 -65.2751
   -65.2747 -65.2745 -65.2742 -65.2741 -65.2735 -65.2732 -65.2709 -65.2707
   -65.2704 -65.2700 -65.2634 -65.2632 -65.2623 -65.2620 -65.2616 -65.2612
   -65.2600 -65.2564 -65.2564 -65.2538 -65.2528 -65.2527 -65.2527 -65.2524
   -65.2521 -65.2512 -65.2497 -65.2496 -65.2492 -65.2487 -65.2486 -65.2483
   -65.2455 -65.2455 -65.2454 -65.2448 -65.2447 -65.2444 -65.2439 -65.2428
   -65.2400 -65.2396 -65.2392 -65.2389 -65.2389 -65.2383 -65.2382 -65.2381
   -65.2381 -65.2379 -65.2377 -65.2370 -65.2351 -65.2350 -65.2346 -65.2342
   -65.2340 -65.2335 -65.2320 -65.2317 -65.2310 -65.2307 -65.2307 -65.2303
   -65.2295 -65.2293 -65.2291 -65.2283 -65.2277 -65.2275 -65.2274 -65.2269
   -65.2269 -65.2264 -65.2264 -65.2236 -65.2235 -65.2233 -65.2232 -65.2221
   -65.2211 -65.2198 -65.2194 -65.2194 -65.2174 -65.2172 -65.2158 -65.2155
   -65.2088 -65.2082 -65.0802 -65.0729 -65.0728 -65.0719 -65.0715 -65.0584
   -65.0538 -65.0535 -65.0506 -65.0505 -65.0505 -65.0504 -65.0419 -65.0416
   -65.0409 -65.0407 -65.0335 -65.0332 -65.0324 -65.0319 -65.0318 -65.0301
   -65.0297 -65.0215 -65.0205 -65.0195 -65.0194 -65.0194 -65.0193 -65.0114
   -65.0111 -65.0110 -65.0083 -65.0082 -64.9993 -64.9992 -64.9884 -64.9870
   -64.9857 -64.9845 -64.9834 -64.9824 -64.9816 -64.9813 -64.9813 -64.9590
   -64.9589 -64.9565 -64.9565 -64.9543 -64.9542 -64.9541 -64.9540 -64.9540
   -12.6303  -9.8942  -9.8888  -6.3027  -6.2866  -4.3188  -3.2741  -3.2739
    -2.7216  -2.6762  -2.6757  -2.3898  -1.8422  -1.7712  -1.7545  -1.7522
    -1.7413  -1.7367  -1.2326  -1.2311  -0.7553  -0.7045  -0.5349  -0.5098
    -0.4502  -0.1286   0.0545   0.0552   0.0697   0.0753   0.0754   0.0756
     0.0757   0.1211   0.1629   0.2016   0.2344   0.2405   0.2440   0.2490
     0.2545   0.2733   0.2734   0.2735   0.2737   0.3290   0.3292   0.3294
     0.3295   0.4564   0.4935   0.4935   0.4941   0.4942   0.5321   0.5749
     0.6714   0.6715   0.6716   0.6717   0.6850   0.7076   0.7095   0.7247
     0.7247   0.7253   0.7254   0.8454   0.8454   0.8456   0.8457   0.8679
     0.8686   0.9558   0.9680   0.9681   0.9686   0.9687   1.0056   1.0057
     1.0499   1.0499   1.1197   1.1198   1.1203   1.1205   1.1814   1.1815
     1.2113   1.2119   1.2306   1.2309   1.2316   1.2320   1.2501   1.2501
     1.2832   1.2874   1.3366   1.3505   1.3512   1.3785   1.3792   1.3972
     1.3995   1.4078   1.4078   1.4083   1.4083   1.4644   1.4658   1.4690
     1.4693   1.4697   1.4699   1.5201   1.5237   1.5431   1.5439   1.5446
     1.5446   1.5535   1.5546   1.5546   1.6032   1.6140   1.6388   1.6413
     1.6418   1.6518   1.6579   1.6923   1.6923   1.6927   1.6928   1.6929
     1.7030   1.7078   1.7563   1.7567   1.7649   1.7658   1.7777   1.7780
     1.8121   1.8126   1.8128   1.8130   1.8345   1.8362   1.8371   1.8383
     1.8385   1.8644   1.8648   1.8665   1.8669   1.8982   1.8983   1.9196
     1.9294   1.9298   1.9849   1.9905   1.9923   1.9942   1.9977   1.9982
     2.0017   2.0018   2.0083   2.0110   2.0184   2.0187   2.0200   2.0396
     2.0446   2.0470   2.0499   2.0526   2.0528   2.0926   2.0974   2.1246
     2.1327   2.1329   2.1665   2.2144   2.2147   2.2151   2.2167   2.2203
     2.2213   2.2220   2.2290   2.2295   2.2367   2.2493   2.2559   2.2846
     2.2933   2.2938   2.2947   2.3097   2.3145   2.3146   2.3148   2.3165
     2.3169   2.3212   2.3403   2.3405   2.3481   2.3494   2.3500   2.4279
     2.4542   2.4708   2.4710   2.4986   2.4986   2.4992   2.4998   2.5307
     2.5313   2.5354   2.5481   2.5700   2.5711   2.5746   2.5749   2.5850
     2.5972   2.6100   2.6117   2.6118   2.6120   2.6121   2.6249   2.6448
     2.6452   2.6469   2.6498   2.7007   2.7008   2.7017   2.7020   2.7125
     2.7134   2.7375   2.7378   2.7667   2.7671   2.7723   2.7736   2.7991
     2.7991   2.8232   2.8264   2.8313   2.8470   2.8862   2.8880   2.8999
     2.9015   2.9081   2.9083   2.9241   2.9368   2.9369   2.9407   2.9410
     2.9428   2.9440   2.9602   2.9642   2.9643   2.9645   2.9648   2.9823
     2.9824   2.9826   2.9919   2.9956   3.0101   3.0119   3.0301   3.0303
     3.0306   3.0325   3.0383   3.0492   3.0683   3.0813   3.0815   3.0824
     3.0825   3.1843   3.2037   3.7176   3.7360   3.7393   3.7463   4.2478
     4.2930   4.2931   4.2934   4.2934   4.5622   4.5629   4.5636   4.5639
     4.9070   4.9150   4.9341   5.0368   5.0704   5.1158   5.1201   5.1219
     5.1247   5.4064   5.7452   6.0007   6.0222   6.0402   6.0846   6.1015
     6.1043   6.1119   6.1626   6.5583   6.6162   7.1993   7.2928   7.4129
     7.4133   7.4192   7.6059   7.9333   7.9810   8.1467   8.2740   8.4087
     8.5357   8.5395   8.5404   8.5612   8.8893   8.9228   8.9266   9.1806
     9.1872   9.1884   9.1986   9.2471   9.4608   9.5989   9.6654   9.7758
     9.8000   9.8505   9.8735   9.8762   9.9089  10.2671  10.3243  10.3596
    10.3956  10.4306  10.4810  10.4887  10.5098  10.8055  10.8607  11.0213
    11.0908  11.1749  11.2545  11.2697  11.3379  11.3856  11.4267  11.4531
    11.4806  11.5602  11.7130  12.0328  12.1090  12.1381  12.2083  12.2514
    12.2637  12.3020  12.4440  12.5168  12.7497  12.7863  12.8905  12.9568
    12.9692  13.0246  13.0348  13.0823  13.1003  13.2049  13.2112  13.2308
    13.2396  13.2809  13.3012  13.3275  13.4754  13.6084  13.6691  13.6699
    13.7321  13.8252

          k =-0.2500-0.7217 0.0000 ( 61343 PWs)   bands (ev):

  -107.8469-107.8452-107.8441-107.8427-107.8406-107.8406-107.8403-107.8396
  -107.8394-107.8388-107.8385-107.8383-107.8381-107.8373-107.8371-107.8367
  -107.8363-107.8355-107.8342-107.8337-107.8318-107.8316-107.8309-107.8305
  -107.8302-107.8294-107.8291-107.8261-107.8249-107.8243-107.8223-107.8217
  -107.8212-107.8209-107.8207-107.8197-107.6122-107.6104-107.6098-107.6079
  -107.6068-107.6061-107.6055-107.6048-107.6047-107.5872-107.5858-107.5856
  -107.5828-107.5827-107.5817-107.5817-107.5815-107.5812 -65.2984 -65.2940
   -65.2933 -65.2926 -65.2921 -65.2913 -65.2909 -65.2896 -65.2879 -65.2863
   -65.2860 -65.2850 -65.2822 -65.2805 -65.2800 -65.2797 -65.2796 -65.2771
   -65.2744 -65.2735 -65.2734 -65.2733 -65.2729 -65.2715 -65.2712 -65.2704
   -65.2696 -65.2693 -65.2668 -65.2662 -65.2618 -65.2611 -65.2607 -65.2599
   -65.2575 -65.2572 -65.2566 -65.2562 -65.2559 -65.2533 -65.2526 -65.2523
   -65.2515 -65.2508 -65.2503 -65.2499 -65.2491 -65.2466 -65.2463 -65.2461
   -65.2459 -65.2457 -65.2455 -65.2445 -65.2441 -65.2438 -65.2433 -65.2423
   -65.2419 -65.2406 -65.2404 -65.2402 -65.2400 -65.2395 -65.2379 -65.2369
   -65.2366 -65.2365 -65.2362 -65.2359 -65.2353 -65.2350 -65.2347 -65.2345
   -65.2342 -65.2332 -65.2329 -65.2322 -65.2318 -65.2314 -65.2310 -65.2299
   -65.2294 -65.2288 -65.2287 -65.2286 -65.2284 -65.2283 -65.2282 -65.2280
   -65.2263 -65.2259 -65.2256 -65.2238 -65.2235 -65.2228 -65.2225 -65.2225
   -65.2217 -65.2215 -65.2195 -65.2184 -65.2184 -65.2174 -65.2138 -65.2119
   -65.2118 -65.2081 -65.0783 -65.0776 -65.0751 -65.0685 -65.0649 -65.0642
   -65.0561 -65.0561 -65.0533 -65.0467 -65.0452 -65.0433 -65.0428 -65.0427
   -65.0422 -65.0419 -65.0369 -65.0362 -65.0355 -65.0353 -65.0289 -65.0245
   -65.0242 -65.0232 -65.0212 -65.0203 -65.0203 -65.0202 -65.0146 -65.0145
   -65.0137 -65.0137 -65.0071 -65.0026 -65.0025 -64.9985 -64.9884 -64.9867
   -64.9861 -64.9843 -64.9833 -64.9824 -64.9818 -64.9813 -64.9812 -64.9593
   -64.9580 -64.9578 -64.9552 -64.9551 -64.9542 -64.9542 -64.9540 -64.9537
   -12.6303  -9.8929  -9.8900  -6.2985  -6.2908  -4.3190  -3.4795  -2.8749
    -2.7212  -2.6734  -2.6732  -2.3896  -2.1010  -2.1001  -1.9569  -1.8075
    -1.7690  -1.2472  -1.2408  -0.8844  -0.6628  -0.6625  -0.5292  -0.3124
    -0.3116  -0.2703  -0.2450  -0.0715  -0.0715  -0.0618   0.1008   0.1031
     0.1231   0.1233   0.1393   0.1433   0.1819   0.1895   0.2012   0.2016
     0.2186   0.3173   0.3206   0.3237   0.3238   0.3958   0.4012   0.4615
     0.4623   0.4738   0.4848   0.5127   0.5128   0.5154   0.5337   0.5349
     0.6005   0.6009   0.6278   0.6290   0.6593   0.6593   0.6851   0.6939
     0.6942   0.7611   0.7612   0.7888   0.8104   0.8222   0.8225   0.8965
     0.8978   0.9488   0.9682   0.9686   0.9965   0.9967   1.0548   1.0638
     1.0643   1.0798   1.0799   1.0932   1.1322   1.1593   1.1596   1.2023
     1.2027   1.2290   1.2335   1.2346   1.2361   1.2528   1.2529   1.3113
     1.3118   1.3150   1.3154   1.3191   1.3309   1.3484   1.3496   1.3620
     1.3629   1.3899   1.3915   1.4138   1.4144   1.4157   1.4348   1.4601
     1.5007   1.5083   1.5087   1.5090   1.5101   1.5387   1.5574   1.5606
     1.5623   1.5993   1.5999   1.6003   1.6034   1.6098   1.6329   1.6538
     1.6540   1.6700   1.6701   1.6940   1.6978   1.7081   1.7083   1.7178
     1.7188   1.7346   1.7351   1.7523   1.7526   1.7679   1.7758   1.7994
     1.8025   1.8101   1.8197   1.8359   1.8375   1.8377   1.8457   1.8535
     1.8545   1.8651   1.8653   1.8726   1.8795   1.8822   1.8836   1.8839
     1.9058   1.9122   1.9344   1.9444   1.9505   1.9566   1.9619   1.9630
     1.9718   1.9720   1.9723   1.9760   1.9808   1.9821   1.9863   1.9869
     2.0423   2.0433   2.0907   2.0973   2.1157   2.1186   2.1192   2.1231
     2.1351   2.1406   2.1504   2.1505   2.1738   2.1898   2.1941   2.1950
     2.2177   2.2204   2.2531   2.2600   2.2630   2.2862   2.2871   2.2889
     2.2900   2.2917   2.2937   2.2964   2.2992   2.3074   2.3264   2.3301
     2.3726   2.3759   2.3770   2.3797   2.3853   2.3892   2.3959   2.4201
     2.4248   2.4294   2.4436   2.4670   2.4675   2.4869   2.4933   2.4939
     2.5050   2.5080   2.5385   2.5468   2.5517   2.5529   2.5792   2.5802
     2.6017   2.6075   2.6081   2.6264   2.6282   2.6498   2.6508   2.6521
     2.6550   2.6586   2.6705   2.6707   2.6756   2.6823   2.6874   2.7051
     2.7405   2.7459   2.7464   2.7507   2.7970   2.7974   2.8086   2.8114
     2.8406   2.8528   2.8537   2.8596   2.8601   2.8730   2.8766   2.9040
     2.9051   2.9053   2.9145   2.9148   2.9253   2.9276   2.9290   2.9295
     2.9320   2.9382   2.9385   2.9396   2.9423   2.9564   2.9573   2.9716
     2.9723   2.9802   2.9830   2.9832   2.9947   3.0105   3.0154   3.0217
     3.0223   3.0393   3.0693   3.0695   3.0814   3.1024   3.1030   3.2586
     3.2651   3.3706   3.3708   3.4718   3.4724   3.5790   3.7960   3.7996
     4.1774   4.1929   4.2809   4.2813   4.2949   4.5566   4.6640   4.6734
     4.6885   4.6887   4.8225   5.1332   5.1609   5.1620   5.6071   5.6455
     5.6692   5.7271   5.8991   5.9153   5.9170   6.0468   6.0559   6.1377
     6.2130   6.5829   6.6591   6.6622   6.8331   6.9154   6.9785   7.0401
     7.0412   7.2835   7.3285   7.3683   7.5854   7.7687   7.8723   7.9423
     8.4559   8.4653   8.4738   8.5685   8.7296   9.0183   9.1167   9.1444
     9.2121   9.3090   9.3199   9.4584   9.4710   9.6469   9.6480   9.6863
     9.7902   9.8717  10.0110  10.1166  10.1570  10.3450  10.4111  10.4556
    10.5052  10.5923  10.6847  10.7948  10.8362  11.0554  11.1037  11.1680
    11.2445  11.2597  11.4396  11.4648  11.4711  11.5928  11.6173  11.6946
    11.6985  11.7969  11.8441  11.8489  11.9953  12.0902  12.1395  12.1596
    12.2722  12.3584  12.3958  12.4222  12.4860  12.5182  12.5764  12.6092
    12.7062  12.7251  12.8113  12.8860  12.9380  12.9817  13.1479  13.2449
    13.2668  13.2963  13.3710  13.4101  13.4741  13.5145  13.5307  13.6336
    13.6549  13.6834

          k =-0.5000-0.5774 0.0000 ( 61343 PWs)   bands (ev):

  -107.8469-107.8452-107.8441-107.8427-107.8406-107.8406-107.8403-107.8395
  -107.8394-107.8388-107.8385-107.8383-107.8381-107.8373-107.8371-107.8367
  -107.8363-107.8355-107.8342-107.8337-107.8318-107.8316-107.8309-107.8305
  -107.8302-107.8293-107.8291-107.8261-107.8249-107.8243-107.8223-107.8217
  -107.8212-107.8209-107.8207-107.8197-107.6122-107.6104-107.6098-107.6079
  -107.6068-107.6061-107.6055-107.6048-107.6047-107.5872-107.5858-107.5856
  -107.5828-107.5827-107.5817-107.5817-107.5815-107.5812 -65.2984 -65.2940
   -65.2933 -65.2926 -65.2921 -65.2913 -65.2909 -65.2896 -65.2880 -65.2863
   -65.2860 -65.2850 -65.2822 -65.2805 -65.2800 -65.2797 -65.2796 -65.2771
   -65.2744 -65.2735 -65.2734 -65.2733 -65.2729 -65.2715 -65.2712 -65.2704
   -65.2696 -65.2693 -65.2668 -65.2662 -65.2618 -65.2611 -65.2607 -65.2599
   -65.2575 -65.2572 -65.2566 -65.2562 -65.2559 -65.2533 -65.2526 -65.2523
   -65.2515 -65.2508 -65.2503 -65.2499 -65.2491 -65.2466 -65.2463 -65.2461
   -65.2459 -65.2457 -65.2455 -65.2445 -65.2441 -65.2438 -65.2433 -65.2423
   -65.2419 -65.2406 -65.2404 -65.2402 -65.2400 -65.2395 -65.2379 -65.2369
   -65.2366 -65.2365 -65.2362 -65.2359 -65.2353 -65.2350 -65.2347 -65.2345
   -65.2342 -65.2332 -65.2329 -65.2322 -65.2318 -65.2314 -65.2310 -65.2299
   -65.2294 -65.2288 -65.2287 -65.2286 -65.2284 -65.2283 -65.2282 -65.2280
   -65.2263 -65.2259 -65.2256 -65.2238 -65.2235 -65.2228 -65.2225 -65.2225
   -65.2217 -65.2215 -65.2195 -65.2184 -65.2184 -65.2174 -65.2138 -65.2119
   -65.2118 -65.2081 -65.0783 -65.0776 -65.0751 -65.0685 -65.0649 -65.0642
   -65.0561 -65.0561 -65.0533 -65.0467 -65.0452 -65.0434 -65.0428 -65.0427
   -65.0422 -65.0419 -65.0369 -65.0362 -65.0355 -65.0353 -65.0289 -65.0245
   -65.0242 -65.0232 -65.0212 -65.0203 -65.0203 -65.0202 -65.0146 -65.0145
   -65.0137 -65.0137 -65.0071 -65.0026 -65.0025 -64.9985 -64.9884 -64.9867
   -64.9861 -64.9843 -64.9833 -64.9825 -64.9818 -64.9813 -64.9812 -64.9593
   -64.9580 -64.9578 -64.9552 -64.9551 -64.9542 -64.9542 -64.9540 -64.9537
   -12.6303  -9.8927  -9.8902  -6.2989  -6.2905  -4.3190  -3.4795  -2.8749
    -2.7212  -2.6734  -2.6732  -2.3896  -2.1010  -2.1001  -1.9569  -1.8075
    -1.7690  -1.2472  -1.2408  -0.8844  -0.6628  -0.6625  -0.5292  -0.3124
    -0.3116  -0.2703  -0.2450  -0.0715  -0.0715  -0.0618   0.1008   0.1031
     0.1231   0.1233   0.1393   0.1434   0.1818   0.1895   0.2012   0.2016
     0.2186   0.3173   0.3206   0.3237   0.3238   0.3958   0.4012   0.4615
     0.4623   0.4738   0.4848   0.5127   0.5128   0.5154   0.5337   0.5349
     0.6005   0.6009   0.6278   0.6290   0.6593   0.6593   0.6851   0.6939
     0.6942   0.7611   0.7612   0.7888   0.8104   0.8222   0.8225   0.8965
     0.8978   0.9488   0.9682   0.9686   0.9965   0.9967   1.0548   1.0638
     1.0643   1.0798   1.0799   1.0932   1.1322   1.1594   1.1596   1.2023
     1.2027   1.2290   1.2335   1.2346   1.2361   1.2528   1.2529   1.3113
     1.3118   1.3150   1.3154   1.3191   1.3309   1.3484   1.3496   1.3620
     1.3629   1.3899   1.3915   1.4138   1.4144   1.4157   1.4348   1.4601
     1.5007   1.5083   1.5086   1.5090   1.5101   1.5387   1.5574   1.5606
     1.5623   1.5993   1.5999   1.6003   1.6034   1.6098   1.6329   1.6538
     1.6540   1.6700   1.6701   1.6940   1.6978   1.7081   1.7083   1.7178
     1.7188   1.7346   1.7351   1.7523   1.7526   1.7679   1.7758   1.7994
     1.8025   1.8100   1.8197   1.8359   1.8375   1.8377   1.8457   1.8535
     1.8545   1.8651   1.8653   1.8726   1.8795   1.8822   1.8836   1.8839
     1.9058   1.9122   1.9344   1.9444   1.9505   1.9566   1.9619   1.9630
     1.9718   1.9720   1.9723   1.9760   1.9808   1.9821   1.9863   1.9869
     2.0423   2.0433   2.0907   2.0973   2.1157   2.1186   2.1192   2.1231
     2.1351   2.1405   2.1504   2.1505   2.1738   2.1898   2.1941   2.1950
     2.2177   2.2204   2.2531   2.2600   2.2630   2.2862   2.2871   2.2889
     2.2900   2.2917   2.2937   2.2964   2.2992   2.3074   2.3264   2.3301
     2.3726   2.3759   2.3770   2.3797   2.3853   2.3892   2.3959   2.4201
     2.4248   2.4294   2.4436   2.4670   2.4675   2.4869   2.4933   2.4939
     2.5050   2.5080   2.5385   2.5468   2.5517   2.5529   2.5792   2.5802
     2.6017   2.6075   2.6081   2.6264   2.6282   2.6498   2.6508   2.6521
     2.6550   2.6586   2.6705   2.6707   2.6756   2.6823   2.6874   2.7051
     2.7405   2.7459   2.7464   2.7507   2.7970   2.7974   2.8086   2.8114
     2.8406   2.8528   2.8537   2.8596   2.8601   2.8730   2.8766   2.9040
     2.9051   2.9053   2.9145   2.9148   2.9253   2.9276   2.9290   2.9295
     2.9320   2.9382   2.9385   2.9396   2.9423   2.9564   2.9573   2.9716
     2.9723   2.9802   2.9830   2.9832   2.9947   3.0105   3.0154   3.0217
     3.0223   3.0393   3.0693   3.0695   3.0814   3.1024   3.1030   3.2586
     3.2651   3.3706   3.3708   3.4718   3.4724   3.5790   3.7960   3.7996
     4.1774   4.1929   4.2809   4.2813   4.2949   4.5566   4.6640   4.6734
     4.6884   4.6887   4.8225   5.1332   5.1609   5.1620   5.6071   5.6455
     5.6692   5.7271   5.8991   5.9152   5.9170   6.0468   6.0559   6.1377
     6.2130   6.5829   6.6591   6.6622   6.8331   6.9155   6.9785   7.0401
     7.0412   7.2836   7.3283   7.3683   7.5855   7.7687   7.8723   7.9423
     8.4559   8.4653   8.4737   8.5685   8.7296   9.0183   9.1166   9.1444
     9.2121   9.3090   9.3199   9.4584   9.4710   9.6469   9.6480   9.6863
     9.7902   9.8717  10.0110  10.1167  10.1570  10.3450  10.4112  10.4556
    10.5052  10.5923  10.6847  10.7948  10.8362  11.0554  11.1037  11.1680
    11.2445  11.2597  11.4396  11.4648  11.4711  11.5928  11.6173  11.6946
    11.6985  11.7970  11.8441  11.8489  11.9952  12.0902  12.1395  12.1596
    12.2723  12.3584  12.3958  12.4222  12.4860  12.5182  12.5764  12.6092
    12.7062  12.7251  12.8113  12.8859  12.9380  12.9817  13.1479  13.2448
    13.2668  13.2963  13.3710  13.4101  13.4741  13.5145  13.5308  13.6336
    13.6549  13.6834

     the Fermi energy is     4.5999 ev

!    total energy              =  -21903.76897887 Ry
     Harris-Foulkes estimate   =  -21903.76897898 Ry
     estimated scf accuracy    <          6.9E-09 Ry

     The total energy is the sum of the following terms:

     one-electron contribution = -206942.17017840 Ry
     hartree contribution      =  103673.39036293 Ry
     xc contribution           =   -2143.18607391 Ry
     ewald contribution        =   83508.24951523 Ry
     smearing contrib. (-TS)   =      -0.05260472 Ry

     convergence has been achieved in  36 iterations
 
     init_run     :     86.54s CPU     89.22s WALL (       1 calls)
     electrons    :  18973.97s CPU  19276.74s WALL (       1 calls)

     Called by init_run:
     wfcinit      :     76.41s CPU     78.23s WALL (       1 calls)
     potinit      :      6.14s CPU      6.44s WALL (       1 calls)
     hinit0       :      2.05s CPU      2.08s WALL (       1 calls)

     Called by electrons:
     c_bands      :  17871.63s CPU  18114.51s WALL (      36 calls)
     sum_band     :    861.59s CPU    894.34s WALL (      36 calls)
     v_of_rho     :    196.25s CPU    205.09s WALL (      37 calls)
     newd         :     41.87s CPU     60.66s WALL (      37 calls)
     mix_rho      :      5.25s CPU      5.38s WALL (      36 calls)

     Called by c_bands:
     init_us_2    :     35.54s CPU     36.38s WALL (     730 calls)
     cegterg      :  17722.21s CPU  17959.89s WALL (     361 calls)

     Called by sum_band:
     sum_band:bec :      3.37s CPU      3.38s WALL (     360 calls)
     addusdens    :     49.43s CPU     69.80s WALL (      36 calls)

     Called by *egterg:
     h_psi        :   3967.82s CPU   4041.20s WALL (    1933 calls)
     s_psi        :    617.24s CPU    618.36s WALL (    1933 calls)
     g_psi        :     13.73s CPU     13.77s WALL (    1562 calls)
     cdiaghg      :  10198.37s CPU  10271.56s WALL (    1923 calls)

     Called by h_psi:
     h_psi:pot    :   3953.62s CPU   4009.29s WALL (    1933 calls)
     h_psi:calbec :    651.45s CPU    654.98s WALL (    1933 calls)
     vloc_psi     :   2679.92s CPU   2730.62s WALL (    1933 calls)
     add_vuspsi   :    622.22s CPU    623.68s WALL (    1933 calls)

     General routines
     calbec       :    883.85s CPU    887.83s WALL (    2293 calls)
     fft          :    145.65s CPU    147.51s WALL (    2330 calls)
     ffts         :      0.43s CPU      0.45s WALL (      73 calls)
     fftw         :   2862.50s CPU   2920.30s WALL ( 1450700 calls)
     interpolate  :      2.51s CPU      2.55s WALL (      37 calls)
 
     Parallel routines
     fft_scatt_xy :    281.20s CPU    282.82s WALL ( 1453103 calls)
     fft_scatt_yz :   1681.11s CPU   1732.86s WALL ( 1453103 calls)
 
     PWSCF        :     5h17m CPU       17h 5m WALL

      22h
 
   This run was terminated on:  14:55:22  19Nov2019            

=------------------------------------------------------------------------------=
   JOB DONE.
=------------------------------------------------------------------------------=
