
     Program PWSCF v.6.3MaX starts on 22Nov2019 at  6:39:30 

     This program is part of the open-source Quantum ESPRESSO suite
     for quantum simulation of materials; please cite
         "P. Giannozzi et al., J. Phys.:Condens. Matter 21 395502 (2009);
         "P. Giannozzi et al., J. Phys.:Condens. Matter 29 465901 (2017);
          URL http://www.quantum-espresso.org", 
     in publications or presentations arising from this work. More details at
     http://www.quantum-espresso.org/quote

     Parallel version (MPI), running on    16 processors

     MPI processes distributed on     2 nodes
     R & G space division:  proc/nbgrp/npool/nimage =      16
     Waiting for input...
     Reading input from standard input

     Current dimensions of program PWSCF are:
     Max number of different atomic species (ntypx) = 10
     Max number of k-points (npk) =  40000
     Max angular momentum in pseudopotentials (lmaxx) =  3
     Message from routine iosys:
     minimal I/O required, wf_collect reset to FALSE

     IMPORTANT: XC functional enforced from input :
     Exchange-correlation      = VDW-DF ( 1  4  4  0 1 0)
     Any further DFT definition will be discarded
     Please, verify this is what you really want


     Subspace diagonalization in iterative solution of the eigenvalue problem:
     one sub-group per band group will be used
     scalapack distributed-memory algorithm (size of sub-group:  2*  2 procs)

 
     Parallelization info
     --------------------
     sticks:   dense  smooth     PW     G-vecs:    dense   smooth      PW
     Min         565     189     51               159513    30701    4383
     Max         566     190     52               159526    30710    4400
     Sum        9055    3037    823              2552337   491295   70261
 


     bravais-lattice index     =            0
     lattice parameter (alat)  =      14.8058  a.u.
     unit-cell volume          =   10282.4791 (a.u.)^3
     number of atoms/cell      =           66
     number of atomic types    =            3
     number of electrons       =      1056.00
     number of Kohn-Sham states=          634
     kinetic-energy cutoff     =      50.0000  Ry
     charge density cutoff     =     600.0000  Ry
     convergence threshold     =      1.0E-08
     mixing beta               =       0.3000
     number of iterations used =            8  plain     mixing
     Exchange-correlation      = VDW-DF ( 1  4  4  0 1 0)

     celldm(1)=  14.805786  celldm(2)=   0.000000  celldm(3)=   0.000000
     celldm(4)=   0.000000  celldm(5)=   0.000000  celldm(6)=   0.000000

     crystal axes: (cart. coord. in units of alat)
               a(1) = (   1.000000   0.000000   0.000000 )  
               a(2) = (   0.500000   0.866025   0.000000 )  
               a(3) = (   0.000000   0.000000   3.658245 )  

     reciprocal axes: (cart. coord. in units 2 pi/alat)
               b(1) = (  1.000000 -0.577350  0.000000 )  
               b(2) = (  0.000000  1.154701  0.000000 )  
               b(3) = (  0.000000  0.000000  0.273355 )  


     PseudoPot. # 1 for Cu read from file:
     /deac/thonhauserGrp/chakrad/calculations/atomandmolecule-qe6.2.1-i2012-C6modif/all_pbe_UPF_v1.5/cu_pbe_v1.2.uspp.F.UPF
     MD5 check sum: 6e991ff952a84172a2a52a1c1e996048
     Pseudo is Ultrasoft + core correction, Zval = 19.0
     Generated by new atomic code, or converted to UPF format
     Using radial grid of  867 points,  6 beta functions with: 
                l(1) =   0
                l(2) =   0
                l(3) =   1
                l(4) =   1
                l(5) =   2
                l(6) =   2
     Q(r) pseudized with  8 coefficients,  rinner =    1.150   1.150   1.150
                                                       1.150   1.150

     PseudoPot. # 2 for C  read from file:
     /deac/thonhauserGrp/chakrad/calculations/atomandmolecule-qe6.2.1-i2012-C6modif/all_pbe_UPF_v1.5/c_pbe_v1.2.uspp.F.UPF
     MD5 check sum: d1aef80898a10debaa0f26306b886e00
     Pseudo is Ultrasoft + core correction, Zval =  4.0
     Generated by new atomic code, or converted to UPF format
     Using radial grid of  721 points,  4 beta functions with: 
                l(1) =   0
                l(2) =   0
                l(3) =   1
                l(4) =   1
     Q(r) pseudized with  8 coefficients,  rinner =    1.100   1.100   1.100


     PseudoPot. # 3 for H  read from file:
     /deac/thonhauserGrp/chakrad/calculations/atomandmolecule-qe6.2.1-i2012-C6modif/all_pbe_UPF_v1.5/h_pbe_v1.4.uspp.F.UPF
     MD5 check sum: 761ae9a214b05c3daf00ab9f6b793d6f
     Pseudo is Ultrasoft, Zval =  1.0
     Generated by new atomic code, or converted to UPF format
     Using radial grid of  615 points,  2 beta functions with: 
                l(1) =   0
                l(2) =   0
     Q(r) pseudized with  8 coefficients,  rinner =    0.700

     vdW kernel table read from file vdW_kernel_table
     MD5 check sum: cc9485f6209b1096fbef62427c856dab

     atomic species   valence    mass     pseudopotential
        Cu            19.00     1.00000     Cu( 1.00)
        C              4.00     1.00000     C ( 1.00)
        H              1.00     1.00000     H ( 1.00)

     No symmetry found



   Cartesian axes

     site n.     atom                  positions (alat units)
         1           Cu  tau(   1) = (   0.1666667   0.0962250   0.2552686  )
         2           Cu  tau(   2) = (   0.5000000   0.0962250   0.2552686  )
         3           Cu  tau(   3) = (   0.8333333   0.0962250   0.2552686  )
         4           Cu  tau(   4) = (   0.3333333   0.3849002   0.2552686  )
         5           Cu  tau(   5) = (   0.6666667   0.3849002   0.2552686  )
         6           Cu  tau(   6) = (   1.0000000   0.3849002   0.2552686  )
         7           Cu  tau(   7) = (   0.5000000   0.6735753   0.2552686  )
         8           Cu  tau(   8) = (   0.8333333   0.6735753   0.2552686  )
         9           Cu  tau(   9) = (   1.1666667   0.6735753   0.2552686  )
        10           Cu  tau(  10) = (   0.0000000   0.1924501   0.5274341  )
        11           Cu  tau(  11) = (   0.3333333   0.1924501   0.5274341  )
        12           Cu  tau(  12) = (   0.6666667   0.1924501   0.5274341  )
        13           Cu  tau(  13) = (   0.1666667   0.4811252   0.5274341  )
        14           Cu  tau(  14) = (   0.5000000   0.4811252   0.5274341  )
        15           Cu  tau(  15) = (   0.8333333   0.4811252   0.5274341  )
        16           Cu  tau(  16) = (   0.3333333   0.7698004   0.5274341  )
        17           Cu  tau(  17) = (   0.6666667   0.7698004   0.5274341  )
        18           Cu  tau(  18) = (   1.0000000   0.7698004   0.5274341  )
        19           Cu  tau(  19) = (   0.0000000   0.0000000   0.7995997  )
        20           Cu  tau(  20) = (   0.3333333   0.0000000   0.7995997  )
        21           Cu  tau(  21) = (   0.6666667   0.0000000   0.7995997  )
        22           Cu  tau(  22) = (   0.1666667   0.2886751   0.7995997  )
        23           Cu  tau(  23) = (   0.5000000   0.2886751   0.7995997  )
        24           Cu  tau(  24) = (   0.8333333   0.2886751   0.7995997  )
        25           Cu  tau(  25) = (   0.3333333   0.5773503   0.7995997  )
        26           Cu  tau(  26) = (   0.6666667   0.5773503   0.7995997  )
        27           Cu  tau(  27) = (   1.0000000   0.5773503   0.7995997  )
        28           Cu  tau(  28) = (   0.1666659   0.0962246   1.0691130  )
        29           Cu  tau(  29) = (   0.5000000   0.0962241   1.0691104  )
        30           Cu  tau(  30) = (   0.8333341   0.0962246   1.0691130  )
        31           Cu  tau(  31) = (   0.3333325   0.3849006   1.0691104  )
        32           Cu  tau(  32) = (   0.6666675   0.3849006   1.0691104  )
        33           Cu  tau(  33) = (   1.0000000   0.3849003   1.0691143  )
        34           Cu  tau(  34) = (   0.5000000   0.6735762   1.0691130  )
        35           Cu  tau(  35) = (   0.8333334   0.6735753   1.0691143  )
        36           Cu  tau(  36) = (   1.1666666   0.6735753   1.0691143  )
        37           Cu  tau(  37) = (   0.0000000   0.1924486   1.3387540  )
        38           Cu  tau(  38) = (   0.3333330   0.1924499   1.3387465  )
        39           Cu  tau(  39) = (   0.6666670   0.1924499   1.3387465  )
        40           Cu  tau(  40) = (   0.1666676   0.4811247   1.3387504  )
        41           Cu  tau(  41) = (   0.5000000   0.4811256   1.3387465  )
        42           Cu  tau(  42) = (   0.8333324   0.4811247   1.3387504  )
        43           Cu  tau(  43) = (   0.3333346   0.7698011   1.3387540  )
        44           Cu  tau(  44) = (   0.6666654   0.7698011   1.3387540  )
        45           Cu  tau(  45) = (   1.0000000   0.7698014   1.3387504  )
        46           Cu  tau(  46) = (   0.0000000   0.0000000   1.6083750  )
        47           Cu  tau(  47) = (   0.3333333   0.0000005   1.6083624  )
        48           Cu  tau(  48) = (   0.6666667   0.0000005   1.6083624  )
        49           Cu  tau(  49) = (   0.1666671   0.2886748   1.6083624  )
        50           Cu  tau(  50) = (   0.5000000   0.2886751   1.6083553  )
        51           Cu  tau(  51) = (   0.8333329   0.2886748   1.6083624  )
        52           Cu  tau(  52) = (   0.3333338   0.5773500   1.6083624  )
        53           Cu  tau(  53) = (   0.6666662   0.5773500   1.6083624  )
        54           Cu  tau(  54) = (   1.0000000   0.5773503   1.6083570  )
        55           C   tau(  55) = (   0.6567407   0.3959883   1.9976025  )
        56           C   tau(  56) = (   0.5046394   0.3028152   1.9976025  )
        57           C   tau(  57) = (   0.3478975   0.3879497   1.9976025  )
        58           C   tau(  58) = (   0.3432593   0.5662630   1.9976025  )
        59           C   tau(  59) = (   0.4953606   0.6594361   1.9976025  )
        60           C   tau(  60) = (   0.6521025   0.5743016   1.9976025  )
        61           H   tau(  61) = (   0.7789959   0.3295665   1.9976808  )
        62           H   tau(  62) = (   0.5082587   0.1637263   1.9976808  )
        63           H   tau(  63) = (   0.2292624   0.3152577   1.9976808  )
        64           H   tau(  64) = (   0.2210041   0.6326847   1.9976808  )
        65           H   tau(  65) = (   0.4917413   0.7985249   1.9976808  )
        66           H   tau(  66) = (   0.7707376   0.6469936   1.9976808  )

     number of k points=    10  gaussian smearing, width (Ry)=  0.0200
                       cart. coord. in units 2pi/alat
        k(    1) = (   0.0000000   0.0000000   0.0000000), wk =   0.1250000
        k(    2) = (   0.0000000   0.2886751   0.0000000), wk =   0.2500000
        k(    3) = (   0.0000000  -0.5773503   0.0000000), wk =   0.1250000
        k(    4) = (   0.2500000  -0.7216878   0.0000000), wk =   0.2500000
        k(    5) = (  -0.2500000   0.1443376   0.0000000), wk =   0.2500000
        k(    6) = (   0.2500000   0.1443376   0.0000000), wk =   0.2500000
        k(    7) = (   0.5000000  -0.2886751   0.0000000), wk =   0.1250000
        k(    8) = (  -0.5000000  -0.2886751   0.0000000), wk =   0.1250000
        k(    9) = (  -0.2500000  -0.7216878   0.0000000), wk =   0.2500000
        k(   10) = (  -0.5000000  -0.5773503   0.0000000), wk =   0.2500000

     Dense  grid:  2552337 G-vectors     FFT dimensions: ( 120, 120, 432)

     Smooth grid:   491295 G-vectors     FFT dimensions: (  72,  72, 243)

     Estimated max dynamical RAM per process >       1.14 GB

     Estimated total dynamical RAM >      18.26 GB

     Initial potential from superposition of free atoms
     Check: negative starting charge=   -0.000797

     starting charge 1001.99960, renormalised to 1056.00000

     negative rho (up, down):  8.404E-04 0.000E+00


     %%%%%%%%%%%%%%%%%%%%%%%%%%%%%%%%%%%%%%%%%%%%%%%%%%%%%%%%%%%%%%%%%%%%%%%%
     %                                                                      %
     % You are using vdW-DF, which was implemented by the Thonhauser group. %
     % Please cite the following two papers that made this development      %
     % possible and the two reviews that describe the various versions:     %
     %                                                                      %
     %   T. Thonhauser et al., PRL 115, 136402 (2015).                      %
     %   T. Thonhauser et al., PRB 76, 125112 (2007).                       %
     %   K. Berland et al., Rep. Prog. Phys. 78, 066501 (2015).             %
     %   D.C. Langreth et al., J. Phys.: Condens. Matter 21, 084203 (2009). %
     %                                                                      %
     %                                                                      %
     % If you are calculating the stress with vdW-DF, please also cite:     %
     %                                                                      %
     %   R. Sabatini et al., J. Phys.: Condens. Matter 24, 424209 (2012).   %
     %                                                                      %
     %%%%%%%%%%%%%%%%%%%%%%%%%%%%%%%%%%%%%%%%%%%%%%%%%%%%%%%%%%%%%%%%%%%%%%%%


     Starting wfcs are  732 randomized atomic wfcs

     total cpu time spent up to now is       94.6 secs

     Self-consistent Calculation

     iteration #  1     ecut=    50.00 Ry     beta= 0.30
     Davidson diagonalization with overlap
     ethr =  1.00E-02,  avg # of iterations =  6.1

     negative rho (up, down):  5.068E-04 0.000E+00

     total cpu time spent up to now is     1361.6 secs

     total energy              =  -18847.57978198 Ry
     Harris-Foulkes estimate   =  -22010.21079135 Ry
     estimated scf accuracy    <    6250.14472765 Ry

     iteration #  2     ecut=    50.00 Ry     beta= 0.30
     Davidson diagonalization with overlap
     ethr =  1.00E-02,  avg # of iterations = 18.5

     negative rho (up, down):  5.516E-04 0.000E+00

     total cpu time spent up to now is     4076.4 secs

     total energy              =  -19245.87195795 Ry
     Harris-Foulkes estimate   =  -39179.11712623 Ry
     estimated scf accuracy    <  280042.21298696 Ry

     iteration #  3     ecut=    50.00 Ry     beta= 0.30
     Davidson diagonalization with overlap
     ethr =  1.00E-02,  avg # of iterations =  7.2

     negative rho (up, down):  6.233E-04 0.000E+00

     total cpu time spent up to now is     5525.8 secs

     total energy              =  -21533.68669944 Ry
     Harris-Foulkes estimate   =  -23495.63351068 Ry
     estimated scf accuracy    <   56194.15717834 Ry

     iteration #  4     ecut=    50.00 Ry     beta= 0.30
     Davidson diagonalization with overlap
     ethr =  1.00E-02,  avg # of iterations =  8.1

     negative rho (up, down):  8.373E-04 0.000E+00

     total cpu time spent up to now is     6778.2 secs

     total energy              =  -21671.69711487 Ry
     Harris-Foulkes estimate   =  -22134.93889572 Ry
     estimated scf accuracy    <   14503.91896481 Ry

     iteration #  5     ecut=    50.00 Ry     beta= 0.30
     Davidson diagonalization with overlap
     ethr =  1.00E-02,  avg # of iterations =  6.5

     negative rho (up, down):  9.299E-04 0.000E+00

     total cpu time spent up to now is     8218.3 secs

     total energy              =  -21782.91585654 Ry
     Harris-Foulkes estimate   =  -22231.51670741 Ry
     estimated scf accuracy    <    9169.76862076 Ry

     iteration #  6     ecut=    50.00 Ry     beta= 0.30
     Davidson diagonalization with overlap
     ethr =  1.00E-02,  avg # of iterations =  6.8

     negative rho (up, down):  1.092E-03 0.000E+00

     total cpu time spent up to now is     9310.8 secs

     total energy              =  -21897.73119477 Ry
     Harris-Foulkes estimate   =  -21965.50761790 Ry
     estimated scf accuracy    <    1797.36051756 Ry

     iteration #  7     ecut=    50.00 Ry     beta= 0.30
     Davidson diagonalization with overlap
     ethr =  1.00E-02,  avg # of iterations =  2.6

     negative rho (up, down):  1.249E-03 0.000E+00

     total cpu time spent up to now is     9589.7 secs

     total energy              =  -21915.04495386 Ry
     Harris-Foulkes estimate   =  -21936.43679301 Ry
     estimated scf accuracy    <     171.93406952 Ry

     iteration #  8     ecut=    50.00 Ry     beta= 0.30
     Davidson diagonalization with overlap
     ethr =  1.00E-02,  avg # of iterations =  2.4

     negative rho (up, down):  1.370E-03 0.000E+00

     total cpu time spent up to now is     9848.0 secs

     total energy              =  -21917.26411780 Ry
     Harris-Foulkes estimate   =  -21920.16390342 Ry
     estimated scf accuracy    <      99.46097164 Ry

     iteration #  9     ecut=    50.00 Ry     beta= 0.30
     Davidson diagonalization with overlap
     ethr =  9.42E-03,  avg # of iterations =  1.0

     negative rho (up, down):  1.478E-03 0.000E+00

     total cpu time spent up to now is    10066.8 secs

     total energy              =  -21910.63500123 Ry
     Harris-Foulkes estimate   =  -21917.86271985 Ry
     estimated scf accuracy    <     108.36997260 Ry

     iteration # 10     ecut=    50.00 Ry     beta= 0.30
     Davidson diagonalization with overlap
     ethr =  9.42E-03,  avg # of iterations =  1.0

     negative rho (up, down):  1.776E-03 0.000E+00

     total cpu time spent up to now is    10280.8 secs

     total energy              =  -21894.12216830 Ry
     Harris-Foulkes estimate   =  -21912.08346811 Ry
     estimated scf accuracy    <      85.95963759 Ry

     iteration # 11     ecut=    50.00 Ry     beta= 0.30
     Davidson diagonalization with overlap
     ethr =  8.14E-03,  avg # of iterations =  4.0

     negative rho (up, down):  9.846E-05 0.000E+00

     total cpu time spent up to now is    10701.5 secs

     total energy              =  -21895.05585658 Ry
     Harris-Foulkes estimate   =  -21918.78651557 Ry
     estimated scf accuracy    <     541.26374440 Ry

     iteration # 12     ecut=    50.00 Ry     beta= 0.30
     Davidson diagonalization with overlap
     ethr =  8.14E-03,  avg # of iterations =  2.0

     negative rho (up, down):  6.399E-05 0.000E+00

     total cpu time spent up to now is    10946.1 secs

     total energy              =  -21901.30694575 Ry
     Harris-Foulkes estimate   =  -21906.61976974 Ry
     estimated scf accuracy    <      38.15272960 Ry

     iteration # 13     ecut=    50.00 Ry     beta= 0.30
     Davidson diagonalization with overlap
     ethr =  3.61E-03,  avg # of iterations =  3.8

     negative rho (up, down):  7.356E-05 0.000E+00

     total cpu time spent up to now is    11277.9 secs

     total energy              =  -21904.08830917 Ry
     Harris-Foulkes estimate   =  -21904.75852227 Ry
     estimated scf accuracy    <      16.49893241 Ry

     iteration # 14     ecut=    50.00 Ry     beta= 0.30
     Davidson diagonalization with overlap
     ethr =  1.56E-03,  avg # of iterations =  3.6

     negative rho (up, down):  6.710E-05 0.000E+00

     total cpu time spent up to now is    11579.4 secs

     total energy              =  -21904.58264345 Ry
     Harris-Foulkes estimate   =  -21904.99982036 Ry
     estimated scf accuracy    <      17.98734178 Ry

     iteration # 15     ecut=    50.00 Ry     beta= 0.30
     Davidson diagonalization with overlap
     ethr =  1.56E-03,  avg # of iterations =  1.0

     negative rho (up, down):  7.880E-05 0.000E+00

     total cpu time spent up to now is    11802.4 secs

     total energy              =  -21904.31965069 Ry
     Harris-Foulkes estimate   =  -21904.88058768 Ry
     estimated scf accuracy    <      10.19911281 Ry

     iteration # 16     ecut=    50.00 Ry     beta= 0.30
     Davidson diagonalization with overlap
     ethr =  9.66E-04,  avg # of iterations =  1.1

     negative rho (up, down):  9.319E-05 0.000E+00

     total cpu time spent up to now is    12021.6 secs

     total energy              =  -21904.07569307 Ry
     Harris-Foulkes estimate   =  -21904.40438170 Ry
     estimated scf accuracy    <       7.83458794 Ry

     iteration # 17     ecut=    50.00 Ry     beta= 0.30
     Davidson diagonalization with overlap
     ethr =  7.42E-04,  avg # of iterations =  1.0

     negative rho (up, down):  1.133E-04 0.000E+00

     total cpu time spent up to now is    12246.8 secs

     total energy              =  -21904.01243413 Ry
     Harris-Foulkes estimate   =  -21904.12707296 Ry
     estimated scf accuracy    <       5.86023597 Ry

     iteration # 18     ecut=    50.00 Ry     beta= 0.30
     Davidson diagonalization with overlap
     ethr =  5.55E-04,  avg # of iterations =  2.1

     negative rho (up, down):  1.741E-04 0.000E+00

     total cpu time spent up to now is    12509.0 secs

     total energy              =  -21903.73580774 Ry
     Harris-Foulkes estimate   =  -21904.06594243 Ry
     estimated scf accuracy    <       3.22532387 Ry

     iteration # 19     ecut=    50.00 Ry     beta= 0.30
     Davidson diagonalization with overlap
     ethr =  3.05E-04,  avg # of iterations =  6.7

     negative rho (up, down):  1.998E-04 0.000E+00

     total cpu time spent up to now is    12928.9 secs

     total energy              =  -21903.80807997 Ry
     Harris-Foulkes estimate   =  -21903.82759834 Ry
     estimated scf accuracy    <       0.57664518 Ry

     iteration # 20     ecut=    50.00 Ry     beta= 0.30
     Davidson diagonalization with overlap
     ethr =  5.46E-05,  avg # of iterations =  4.3

     negative rho (up, down):  5.836E-04 0.000E+00

     total cpu time spent up to now is    13246.3 secs

     total energy              =  -21903.73849738 Ry
     Harris-Foulkes estimate   =  -21903.81710198 Ry
     estimated scf accuracy    <       0.76807027 Ry

     iteration # 21     ecut=    50.00 Ry     beta= 0.30
     Davidson diagonalization with overlap
     ethr =  5.46E-05,  avg # of iterations =  7.0

     negative rho (up, down):  7.136E-04 0.000E+00

     total cpu time spent up to now is    13709.1 secs

     total energy              =  -21903.76023399 Ry
     Harris-Foulkes estimate   =  -21903.76899022 Ry
     estimated scf accuracy    <       0.06529494 Ry

     iteration # 22     ecut=    50.00 Ry     beta= 0.30
     Davidson diagonalization with overlap
     ethr =  6.18E-06,  avg # of iterations =  4.8

     negative rho (up, down):  7.583E-04 0.000E+00

     total cpu time spent up to now is    14051.5 secs

     total energy              =  -21903.75333069 Ry
     Harris-Foulkes estimate   =  -21903.76467697 Ry
     estimated scf accuracy    <       0.09540948 Ry

     iteration # 23     ecut=    50.00 Ry     beta= 0.30
     Davidson diagonalization with overlap
     ethr =  6.18E-06,  avg # of iterations =  6.6

     negative rho (up, down):  8.910E-04 0.000E+00

     total cpu time spent up to now is    14465.5 secs

     total energy              =  -21903.75425475 Ry
     Harris-Foulkes estimate   =  -21903.76340395 Ry
     estimated scf accuracy    <       0.06956139 Ry

     iteration # 24     ecut=    50.00 Ry     beta= 0.30
     Davidson diagonalization with overlap
     ethr =  6.18E-06,  avg # of iterations =  3.5

     negative rho (up, down):  9.675E-04 0.000E+00

     total cpu time spent up to now is    14769.8 secs

     total energy              =  -21903.75736916 Ry
     Harris-Foulkes estimate   =  -21903.76015465 Ry
     estimated scf accuracy    <       0.03849436 Ry

     iteration # 25     ecut=    50.00 Ry     beta= 0.30
     Davidson diagonalization with overlap
     ethr =  3.65E-06,  avg # of iterations =  2.3

     negative rho (up, down):  1.470E-03 0.000E+00

     total cpu time spent up to now is    15028.9 secs

     total energy              =  -21903.75818983 Ry
     Harris-Foulkes estimate   =  -21903.75884079 Ry
     estimated scf accuracy    <       0.00382653 Ry

     iteration # 26     ecut=    50.00 Ry     beta= 0.30
     Davidson diagonalization with overlap
     ethr =  3.62E-07,  avg # of iterations =  8.3

     negative rho (up, down):  1.771E-03 0.000E+00

     total cpu time spent up to now is    15559.1 secs

     total energy              =  -21903.75847599 Ry
     Harris-Foulkes estimate   =  -21903.75862127 Ry
     estimated scf accuracy    <       0.00132224 Ry

     iteration # 27     ecut=    50.00 Ry     beta= 0.30
     Davidson diagonalization with overlap
     ethr =  1.25E-07,  avg # of iterations =  3.5

     negative rho (up, down):  1.892E-03 0.000E+00

     total cpu time spent up to now is    15869.0 secs

     total energy              =  -21903.75854623 Ry
     Harris-Foulkes estimate   =  -21903.75862236 Ry
     estimated scf accuracy    <       0.00040588 Ry

     iteration # 28     ecut=    50.00 Ry     beta= 0.30
     Davidson diagonalization with overlap
     ethr =  3.84E-08,  avg # of iterations =  2.0

     negative rho (up, down):  2.053E-03 0.000E+00

     total cpu time spent up to now is    16126.9 secs

     total energy              =  -21903.75857946 Ry
     Harris-Foulkes estimate   =  -21903.75863905 Ry
     estimated scf accuracy    <       0.00088159 Ry

     iteration # 29     ecut=    50.00 Ry     beta= 0.30
     Davidson diagonalization with overlap
     ethr =  3.84E-08,  avg # of iterations =  3.5

     negative rho (up, down):  2.111E-03 0.000E+00

     total cpu time spent up to now is    16421.7 secs

     total energy              =  -21903.75861552 Ry
     Harris-Foulkes estimate   =  -21903.75862442 Ry
     estimated scf accuracy    <       0.00014599 Ry

     iteration # 30     ecut=    50.00 Ry     beta= 0.30
     Davidson diagonalization with overlap
     ethr =  1.38E-08,  avg # of iterations =  1.0

     negative rho (up, down):  2.206E-03 0.000E+00

     total cpu time spent up to now is    16644.3 secs

     total energy              =  -21903.75862139 Ry
     Harris-Foulkes estimate   =  -21903.75862919 Ry
     estimated scf accuracy    <       0.00019588 Ry

     iteration # 31     ecut=    50.00 Ry     beta= 0.30
     Davidson diagonalization with overlap
     ethr =  1.38E-08,  avg # of iterations =  1.0

     negative rho (up, down):  2.353E-03 0.000E+00

     total cpu time spent up to now is    16868.9 secs

     total energy              =  -21903.75863082 Ry
     Harris-Foulkes estimate   =  -21903.75862957 Ry
     estimated scf accuracy    <       0.00002474 Ry

     iteration # 32     ecut=    50.00 Ry     beta= 0.30
     Davidson diagonalization with overlap
     ethr =  2.34E-09,  avg # of iterations =  2.0

     negative rho (up, down):  2.520E-03 0.000E+00

     total cpu time spent up to now is    17120.2 secs

     total energy              =  -21903.75863297 Ry
     Harris-Foulkes estimate   =  -21903.75863298 Ry
     estimated scf accuracy    <       0.00001034 Ry

     iteration # 33     ecut=    50.00 Ry     beta= 0.30
     Davidson diagonalization with overlap
     ethr =  9.79E-10,  avg # of iterations =  2.0

     negative rho (up, down):  2.561E-03 0.000E+00

     total cpu time spent up to now is    17379.2 secs

     total energy              =  -21903.75863346 Ry
     Harris-Foulkes estimate   =  -21903.75863426 Ry
     estimated scf accuracy    <       0.00000584 Ry

     iteration # 34     ecut=    50.00 Ry     beta= 0.30
     Davidson diagonalization with overlap
     ethr =  5.53E-10,  avg # of iterations =  2.0

     negative rho (up, down):  2.589E-03 0.000E+00

     total cpu time spent up to now is    17633.6 secs

     total energy              =  -21903.75863374 Ry
     Harris-Foulkes estimate   =  -21903.75863396 Ry
     estimated scf accuracy    <       0.00000060 Ry

     iteration # 35     ecut=    50.00 Ry     beta= 0.30
     Davidson diagonalization with overlap
     ethr =  5.68E-11,  avg # of iterations =  2.0

     negative rho (up, down):  2.594E-03 0.000E+00

     total cpu time spent up to now is    17904.3 secs

     total energy              =  -21903.75863377 Ry
     Harris-Foulkes estimate   =  -21903.75863383 Ry
     estimated scf accuracy    <       0.00000018 Ry

     iteration # 36     ecut=    50.00 Ry     beta= 0.30
     Davidson diagonalization with overlap
     ethr =  1.73E-11,  avg # of iterations =  2.0

     negative rho (up, down):  2.601E-03 0.000E+00

     total cpu time spent up to now is    18164.5 secs

     total energy              =  -21903.75863374 Ry
     Harris-Foulkes estimate   =  -21903.75863379 Ry
     estimated scf accuracy    <       0.00000006 Ry

     iteration # 37     ecut=    50.00 Ry     beta= 0.30
     Davidson diagonalization with overlap
     ethr =  6.12E-12,  avg # of iterations =  2.0

     negative rho (up, down):  2.607E-03 0.000E+00

     total cpu time spent up to now is    18436.5 secs

     total energy              =  -21903.75863369 Ry
     Harris-Foulkes estimate   =  -21903.75863375 Ry
     estimated scf accuracy    <       0.00000008 Ry

     iteration # 38     ecut=    50.00 Ry     beta= 0.30
     Davidson diagonalization with overlap
     ethr =  6.12E-12,  avg # of iterations =  2.0

     negative rho (up, down):  2.608E-03 0.000E+00

     total cpu time spent up to now is    18691.3 secs

     total energy              =  -21903.75863369 Ry
     Harris-Foulkes estimate   =  -21903.75863370 Ry
     estimated scf accuracy    <       0.00000013 Ry

     iteration # 39     ecut=    50.00 Ry     beta= 0.30
     Davidson diagonalization with overlap
     ethr =  6.12E-12,  avg # of iterations =  1.1

     negative rho (up, down):  2.609E-03 0.000E+00

     total cpu time spent up to now is    18912.7 secs

     total energy              =  -21903.75863368 Ry
     Harris-Foulkes estimate   =  -21903.75863369 Ry
     estimated scf accuracy    <       0.00000002 Ry

     iteration # 40     ecut=    50.00 Ry     beta= 0.30
     Davidson diagonalization with overlap
     ethr =  1.86E-12,  avg # of iterations =  2.0

     negative rho (up, down):  2.608E-03 0.000E+00

     total cpu time spent up to now is    19156.8 secs

     total energy              =  -21903.75863368 Ry
     Harris-Foulkes estimate   =  -21903.75863368 Ry
     estimated scf accuracy    <       0.00000001 Ry

     iteration # 41     ecut=    50.00 Ry     beta= 0.30
     Davidson diagonalization with overlap
     ethr =  9.76E-13,  avg # of iterations =  1.0

     negative rho (up, down):  2.608E-03 0.000E+00

     total cpu time spent up to now is    19374.4 secs

     total energy              =  -21903.75863368 Ry
     Harris-Foulkes estimate   =  -21903.75863368 Ry
     estimated scf accuracy    <       0.00000002 Ry

     iteration # 42     ecut=    50.00 Ry     beta= 0.30
     Davidson diagonalization with overlap
     ethr =  9.76E-13,  avg # of iterations =  1.0

     negative rho (up, down):  2.608E-03 0.000E+00

     total cpu time spent up to now is    19589.2 secs

     End of self-consistent calculation

          k = 0.0000 0.0000 0.0000 ( 61453 PWs)   bands (ev):

  -107.7494-107.7440-107.7391-107.7391-107.7382-107.7381-107.7378-107.7378
  -107.7364-107.7353-107.7353-107.7346-107.7346-107.7339-107.7339-107.7339
  -107.7333-107.7328-107.7302-107.7302-107.7296-107.7280-107.7280-107.7266
  -107.7246-107.7246-107.7243-107.7209-107.7193-107.7191-107.7191-107.7191
  -107.7191-107.7178-107.7168-107.7143-107.5508-107.5480-107.5480-107.5334
  -107.5309-107.5309-107.5198-107.5174-107.5174-107.4846-107.4798-107.4798
  -107.4797-107.4791-107.4791-107.4791-107.4768-107.4768 -65.1998 -65.1891
   -65.1860 -65.1860 -65.1854 -65.1854 -65.1843 -65.1794 -65.1792 -65.1792
   -65.1778 -65.1778 -65.1770 -65.1767 -65.1767 -65.1745 -65.1740 -65.1740
   -65.1735 -65.1725 -65.1682 -65.1682 -65.1666 -65.1652 -65.1647 -65.1647
   -65.1635 -65.1635 -65.1634 -65.1627 -65.1627 -65.1615 -65.1615 -65.1609
   -65.1597 -65.1589 -65.1589 -65.1585 -65.1546 -65.1546 -65.1543 -65.1532
   -65.1528 -65.1528 -65.1523 -65.1523 -65.1497 -65.1487 -65.1487 -65.1466
   -65.1461 -65.1458 -65.1458 -65.1456 -65.1456 -65.1449 -65.1401 -65.1386
   -65.1386 -65.1378 -65.1378 -65.1369 -65.1367 -65.1367 -65.1363 -65.1360
   -65.1360 -65.1346 -65.1342 -65.1338 -65.1338 -65.1331 -65.1331 -65.1309
   -65.1308 -65.1279 -65.1279 -65.1278 -65.1278 -65.1272 -65.1272 -65.1260
   -65.1260 -65.1257 -65.1249 -65.1249 -65.1247 -65.1223 -65.1212 -65.1212
   -65.1211 -65.1199 -65.1199 -65.1198 -65.1187 -65.1187 -65.1135 -65.1135
   -65.1130 -65.1128 -65.1128 -65.1120 -65.1116 -65.1116 -65.1083 -65.1083
   -65.1015 -65.1015 -65.0002 -65.0002 -65.0001 -64.9906 -64.9865 -64.9865
   -64.9850 -64.9820 -64.9820 -64.9717 -64.9591 -64.9524 -64.9524 -64.9507
   -64.9507 -64.9431 -64.9394 -64.9390 -64.9390 -64.9388 -64.9384 -64.9384
   -64.9362 -64.9362 -64.9361 -64.9356 -64.9349 -64.9341 -64.9341 -64.9323
   -64.9323 -64.9131 -64.9108 -64.9108 -64.9037 -64.9037 -64.9036 -64.9035
   -64.9035 -64.9028 -64.8979 -64.8957 -64.8957 -64.8913 -64.8913 -64.8564
   -64.8520 -64.8520 -64.8519 -64.8512 -64.8512 -64.8511 -64.8490 -64.8490
   -12.9719 -10.2145 -10.2142  -6.6084  -6.6079  -4.6797  -4.0112  -3.3961
    -3.0668  -2.7011  -2.4598  -2.0401  -2.0400  -1.4051  -1.0562  -1.0458
    -1.0458  -1.0451  -1.0451  -1.0451  -0.9361  -0.6453  -0.6453  -0.6432
    -0.6432  -0.6424  -0.6304  -0.3941  -0.1533  -0.1533  -0.1492  -0.1492
    -0.1463  -0.1436  -0.1237  -0.0926  -0.0924   0.2987   0.2987   0.3070
     0.3089   0.3089   0.3148   0.6473   0.6473   0.6567   0.6571   0.6571
     0.6617   0.7826   0.7826   0.7846   0.7854   0.7854   0.7869   0.8317
     0.8317   0.8337   0.8337   0.8340   0.8354   0.8646   0.8646   0.8786
     0.8786   0.8861   0.8863   0.9821   0.9824   0.9934   0.9934   1.0016
     1.0016   1.0061   1.0089   1.0089   1.0110   1.0233   1.0233   1.0246
     1.0246   1.0624   1.0624   1.1171   1.1171   1.2011   1.2011   1.2158
     1.2158   1.2195   1.2205   1.2205   1.2233   1.2616   1.2616   1.4219
     1.4219   1.4565   1.4565   1.4579   1.4596   1.5616   1.5616   1.5940
     1.5940   1.6021   1.6021   1.6128   1.6128   1.6138   1.6153   1.6506
     1.6508   1.6562   1.6695   1.6696   1.6730   1.7264   1.7264   1.7274
     1.7278   1.7389   1.7390   1.7438   1.7438   1.7684   1.7684   1.7946
     1.8049   1.8049   1.8110   1.8110   1.8111   1.8139   1.8326   1.8326
     1.8544   1.8544   1.8643   1.8652   1.8652   1.8659   1.8738   1.8738
     1.8862   1.8863   1.8863   1.8876   1.8879   1.8879   1.8938   1.8938
     1.9048   1.9800   1.9800   1.9952   1.9953   2.0092   2.0092   2.0104
     2.0145   2.0337   2.0337   2.0365   2.0365   2.0623   2.0623   2.0655
     2.0658   2.0859   2.0859   2.0861   2.0878   2.0878   2.0878   2.0886
     2.0886   2.2674   2.2674   2.2686   2.2747   2.3147   2.3147   2.3412
     2.3420   2.3420   2.3442   2.3442   2.3444   2.3917   2.3917   2.3970
     2.4001   2.4241   2.4241   2.4259   2.4259   2.4446   2.4446   2.4496
     2.4497   2.5057   2.5154   2.5154   2.5392   2.5392   2.5423   2.5426
     2.5426   2.5530   2.5591   2.5591   2.5685   2.5686   2.5718   2.5742
     2.5742   2.5746   2.5747   2.5751   2.5843   2.5843   2.6476   2.6476
     2.7142   2.7147   2.7147   2.7159   2.7161   2.7161   2.7682   2.7694
     2.7694   2.7712   2.7758   2.7758   2.7759   2.7766   2.7770   2.7770
     2.7819   2.7819   2.8314   2.8314   2.8414   2.8426   2.8426   2.8439
     2.8439   2.8444   2.8550   2.8551   2.8551   2.8560   2.8563   2.8563
     2.8768   2.8768   2.8768   2.8772   2.8777   2.8777   2.8938   2.8938
     2.9229   2.9229   2.9291   2.9333   2.9333   2.9369   2.9369   2.9390
     2.9519   2.9522   2.9720   2.9723   2.9723   2.9733   2.9733   2.9739
     2.9976   2.9976   2.9981   2.9981   3.0088   3.0088   3.0266   3.0271
     3.0348   3.0351   3.0351   3.0374   3.0374   3.0382   3.0602   3.0602
     3.0617   3.0678   3.0678   3.0734   3.1168   3.1169   3.1169   3.1192
     3.1192   3.1192   3.1255   3.1255   3.9529   4.0337   4.0337   4.0406
     4.0951   4.1133   4.1133   4.5911   5.4420   5.4420   5.4671   5.5172
     5.5593   5.5594   6.8522   6.8524   7.0022   7.2206   7.3279   7.3768
     7.3768   7.4414   7.4415   7.9136   7.9136   7.9144   7.9147   7.9311
     7.9311   8.1887   8.3041   8.3041   8.3284   8.3284   8.4483   8.7060
     8.7113   8.8068   8.8922   8.8922   8.9651   8.9660   9.0154   9.1722
     9.1722   9.3643   9.4358   9.5942   9.5942   9.6072   9.6072   9.8644
     9.8645   9.8975   9.9763   9.9801  10.5524  10.5806  10.7068  10.7068
    10.7734  10.7734  10.8713  10.8713  10.9651  10.9651  11.0208  11.0208
    11.0352  11.1535  11.1965  11.3514  11.3514  11.4179  11.4179  11.4431
    11.5381  11.6137  11.6137  11.7776  11.8378  11.8378  11.8882  11.8882
    11.9489  11.9814  11.9815  12.0033  12.0033  12.0463  12.1397  12.2321
    12.2321  12.2757  12.3090  12.3789  12.3790  12.5465  12.5465  12.7807
    12.8705  12.8802  12.8803  13.0335  13.0336  13.0597  13.0629  13.0989
    13.1842  13.1959

          k = 0.0000 0.2887 0.0000 ( 61417 PWs)   bands (ev):

  -107.7493-107.7436-107.7403-107.7394-107.7385-107.7379-107.7372-107.7370
  -107.7361-107.7354-107.7354-107.7346-107.7346-107.7341-107.7340-107.7335
  -107.7333-107.7326-107.7309-107.7303-107.7296-107.7279-107.7278-107.7265
  -107.7246-107.7245-107.7240-107.7213-107.7198-107.7197-107.7193-107.7186
  -107.7183-107.7175-107.7170-107.7143-107.5507-107.5481-107.5480-107.5335
  -107.5309-107.5308-107.5198-107.5174-107.5174-107.4842-107.4812-107.4802
  -107.4800-107.4787-107.4786-107.4781-107.4770-107.4770 -65.1984 -65.1904
   -65.1885 -65.1874 -65.1867 -65.1862 -65.1854 -65.1848 -65.1827 -65.1823
   -65.1810 -65.1808 -65.1797 -65.1793 -65.1752 -65.1746 -65.1736 -65.1721
   -65.1710 -65.1705 -65.1696 -65.1694 -65.1692 -65.1685 -65.1672 -65.1671
   -65.1664 -65.1653 -65.1621 -65.1619 -65.1600 -65.1591 -65.1590 -65.1581
   -65.1578 -65.1568 -65.1565 -65.1555 -65.1541 -65.1539 -65.1520 -65.1518
   -65.1498 -65.1484 -65.1483 -65.1478 -65.1472 -65.1471 -65.1459 -65.1455
   -65.1444 -65.1439 -65.1431 -65.1426 -65.1422 -65.1411 -65.1406 -65.1405
   -65.1391 -65.1387 -65.1381 -65.1381 -65.1376 -65.1371 -65.1365 -65.1351
   -65.1342 -65.1333 -65.1331 -65.1323 -65.1318 -65.1313 -65.1308 -65.1305
   -65.1301 -65.1295 -65.1294 -65.1287 -65.1283 -65.1281 -65.1280 -65.1270
   -65.1267 -65.1256 -65.1252 -65.1242 -65.1239 -65.1236 -65.1231 -65.1227
   -65.1227 -65.1217 -65.1201 -65.1197 -65.1195 -65.1166 -65.1165 -65.1164
   -65.1160 -65.1151 -65.1138 -65.1127 -65.1126 -65.1118 -65.1094 -65.1087
   -65.1056 -65.1025 -65.0054 -65.0027 -65.0022 -64.9931 -64.9870 -64.9839
   -64.9817 -64.9772 -64.9769 -64.9657 -64.9613 -64.9547 -64.9531 -64.9516
   -64.9504 -64.9491 -64.9449 -64.9446 -64.9439 -64.9437 -64.9434 -64.9373
   -64.9348 -64.9348 -64.9324 -64.9323 -64.9318 -64.9315 -64.9260 -64.9258
   -64.9230 -64.9131 -64.9108 -64.9108 -64.9076 -64.9074 -64.9064 -64.9035
   -64.9032 -64.8994 -64.8979 -64.8957 -64.8957 -64.8955 -64.8924 -64.8560
   -64.8532 -64.8523 -64.8521 -64.8509 -64.8507 -64.8503 -64.8492 -64.8492
   -12.9711 -10.2180 -10.2150  -6.6111  -6.6038  -4.6526  -3.7980  -3.1878
    -3.0391  -2.7048  -2.2650  -2.1973  -2.0850  -2.0480  -1.6534  -1.4860
    -1.4833  -1.2572  -1.0155  -1.0026  -0.9171  -0.7922  -0.4274  -0.4268
    -0.3446  -0.3381  -0.2439  -0.2160  -0.1464  -0.1437  -0.1406  -0.0986
    -0.0076   0.0263   0.0324   0.1286   0.1317   0.1321   0.3001   0.3129
     0.3364   0.4018   0.4026   0.5810   0.5926   0.6252   0.6252   0.6434
     0.6614   0.6614   0.6803   0.6819   0.7222   0.7299   0.7318   0.7333
     0.7436   0.7444   0.7863   0.7863   0.8210   0.8212   0.8513   0.8514
     0.8526   0.9021   0.9048   0.9182   0.9182   0.9378   0.9387   0.9507
     0.9510   0.9775   0.9785   1.0271   1.0936   1.0941   1.0945   1.1223
     1.1224   1.1327   1.1359   1.1663   1.1671   1.2065   1.2088   1.2093
     1.2768   1.2773   1.2819   1.2978   1.3169   1.3201   1.3635   1.3665
     1.3722   1.3949   1.3951   1.4066   1.4284   1.4677   1.4806   1.4875
     1.4891   1.5043   1.5148   1.5351   1.5556   1.5671   1.5759   1.5843
     1.5925   1.5977   1.6298   1.6527   1.6669   1.6958   1.6998   1.7076
     1.7089   1.7209   1.7248   1.7325   1.7598   1.7668   1.7698   1.7805
     1.7825   1.7923   1.7982   1.8038   1.8150   1.8202   1.8254   1.8384
     1.8503   1.8569   1.8576   1.8640   1.8691   1.8785   1.8828   1.8878
     1.8901   1.8942   1.8979   1.8986   1.9194   1.9235   1.9294   1.9391
     1.9422   1.9559   1.9571   1.9694   1.9742   1.9784   1.9796   2.0020
     2.0122   2.0142   2.0272   2.0361   2.0363   2.0389   2.0449   2.0506
     2.0664   2.0717   2.0971   2.1041   2.1144   2.1153   2.1216   2.1224
     2.1359   2.1497   2.1506   2.1556   2.1780   2.1799   2.1838   2.2012
     2.2255   2.2283   2.2587   2.2707   2.2745   2.2757   2.2816   2.2842
     2.3345   2.3545   2.3779   2.3780   2.3842   2.3862   2.4013   2.4023
     2.4318   2.4322   2.4434   2.4446   2.4473   2.4504   2.4705   2.4727
     2.5105   2.5156   2.5202   2.5214   2.5282   2.5527   2.5561   2.5579
     2.5601   2.5629   2.5928   2.6062   2.6093   2.6117   2.6151   2.6289
     2.6354   2.6360   2.6535   2.6555   2.6589   2.6592   2.6698   2.6738
     2.6900   2.6978   2.7429   2.7494   2.7521   2.7777   2.7806   2.7911
     2.7947   2.7959   2.7965   2.7996   2.8136   2.8166   2.8175   2.8301
     2.8323   2.8363   2.8388   2.8581   2.8809   2.8855   2.8857   2.8875
     2.8987   2.9009   2.9156   2.9191   2.9267   2.9283   2.9749   2.9750
     2.9765   2.9765   2.9778   2.9899   2.9979   2.9980   3.0001   3.0055
     3.0089   3.0095   3.0160   3.0162   3.0219   3.0256   3.0334   3.0360
     3.0541   3.0642   3.0646   3.0659   3.0677   3.0715   3.0720   3.0730
     3.0955   3.1037   3.1160   3.1175   3.1206   3.1247   3.1348   3.1381
     3.1859   3.2278   3.2811   3.3521   3.3796   3.3806   3.4713   3.5400
     3.5405   3.7929   3.8373   3.8451   3.8520   3.8900   4.1548   4.3909
     4.5559   4.8119   4.8197   5.0466   5.1376   5.1552   5.1855   5.9089
     5.9100   6.1296   6.2189   6.2825   6.3034   6.3035   6.5174   6.7343
     6.8314   6.9180   6.9762   7.1108   7.1601   7.3229   7.5297   7.8052
     7.8351   7.8508   8.0097   8.1024   8.2859   8.3022   8.3138   8.4326
     8.4820   8.7359   8.7765   8.7791   8.9151   8.9781   9.3127   9.3217
     9.3273   9.4600   9.5691   9.7079   9.8211   9.8282   9.9151   9.9807
    10.0365  10.0619  10.0998  10.1890  10.2714  10.4132  10.4773  10.4830
    10.5579  10.5697  10.6177  10.7161  10.7303  10.8040  10.8254  10.8935
    10.9410  11.0014  11.0138  11.0570  11.1141  11.2784  11.4618  11.4744
    11.5164  11.5394  11.6017  11.6740  11.7490  11.7889  11.8966  11.9811
    12.0726  12.1798  12.2398  12.3239  12.3847  12.4185  12.4917  12.5003
    12.5588  12.6170  12.6959  12.7484  12.8262  12.8394  12.9052  12.9085
    12.9828  13.0648  13.1378  13.1564  13.2108  13.2658  13.3152  13.4129
    13.4174  13.4519

          k = 0.0000-0.5774 0.0000 ( 61408 PWs)   bands (ev):

  -107.7492-107.7429-107.7415-107.7397-107.7386-107.7374-107.7368-107.7366
  -107.7363-107.7354-107.7352-107.7351-107.7348-107.7342-107.7337-107.7334
  -107.7329-107.7325-107.7317-107.7303-107.7297-107.7278-107.7276-107.7264
  -107.7247-107.7245-107.7236-107.7218-107.7201-107.7199-107.7193-107.7184
  -107.7176-107.7175-107.7173-107.7143-107.5507-107.5481-107.5480-107.5335
  -107.5309-107.5308-107.5199-107.5174-107.5173-107.4831-107.4827-107.4804
  -107.4803-107.4781-107.4780-107.4777-107.4774-107.4773 -65.1956 -65.1937
   -65.1914 -65.1902 -65.1876 -65.1864 -65.1855 -65.1850 -65.1838 -65.1838
   -65.1833 -65.1830 -65.1826 -65.1817 -65.1788 -65.1745 -65.1723 -65.1723
   -65.1720 -65.1714 -65.1709 -65.1706 -65.1702 -65.1701 -65.1680 -65.1673
   -65.1668 -65.1658 -65.1611 -65.1599 -65.1593 -65.1591 -65.1584 -65.1576
   -65.1567 -65.1536 -65.1530 -65.1517 -65.1500 -65.1497 -65.1496 -65.1492
   -65.1487 -65.1475 -65.1469 -65.1468 -65.1463 -65.1450 -65.1448 -65.1437
   -65.1424 -65.1422 -65.1419 -65.1416 -65.1414 -65.1410 -65.1395 -65.1392
   -65.1376 -65.1366 -65.1362 -65.1358 -65.1353 -65.1349 -65.1347 -65.1347
   -65.1346 -65.1344 -65.1339 -65.1327 -65.1318 -65.1315 -65.1310 -65.1304
   -65.1302 -65.1298 -65.1286 -65.1279 -65.1275 -65.1274 -65.1273 -65.1265
   -65.1263 -65.1260 -65.1247 -65.1247 -65.1244 -65.1238 -65.1238 -65.1237
   -65.1227 -65.1224 -65.1223 -65.1201 -65.1199 -65.1195 -65.1193 -65.1191
   -65.1167 -65.1164 -65.1160 -65.1154 -65.1142 -65.1132 -65.1127 -65.1118
   -65.1058 -65.1045 -65.0086 -65.0044 -65.0038 -64.9950 -64.9890 -64.9811
   -64.9788 -64.9720 -64.9695 -64.9645 -64.9619 -64.9575 -64.9546 -64.9539
   -64.9512 -64.9475 -64.9470 -64.9467 -64.9465 -64.9463 -64.9448 -64.9423
   -64.9355 -64.9348 -64.9324 -64.9323 -64.9281 -64.9278 -64.9158 -64.9157
   -64.9156 -64.9152 -64.9131 -64.9108 -64.9107 -64.9075 -64.9074 -64.9070
   -64.9045 -64.9042 -64.8980 -64.8957 -64.8956 -64.8956 -64.8951 -64.8550
   -64.8546 -64.8524 -64.8523 -64.8503 -64.8502 -64.8500 -64.8495 -64.8494
   -12.9703 -10.2214 -10.2157  -6.6144  -6.5991  -4.6246  -3.1731  -3.1725
    -3.0110  -2.7086  -2.5839  -2.5805  -2.1423  -2.0559  -1.7139  -1.6633
    -1.6398  -1.6388  -1.1622  -1.1323  -1.0182  -0.6116  -0.5272  -0.4158
    -0.3941  -0.1800  -0.1019  -0.0266   0.1456   0.1576   0.1768   0.1771
     0.1776   0.1787   0.1810   0.2633   0.3253   0.3411   0.3437   0.3544
     0.3562   0.3750   0.3751   0.3758   0.3760   0.4291   0.4293   0.4303
     0.4303   0.5589   0.5916   0.5916   0.5945   0.5946   0.6208   0.6729
     0.7729   0.7730   0.7740   0.7743   0.7813   0.8017   0.8113   0.8209
     0.8216   0.8249   0.8251   0.9459   0.9463   0.9476   0.9477   0.9678
     0.9708   1.0514   1.0593   1.0605   1.0655   1.0658   1.1074   1.1078
     1.1500   1.1506   1.2096   1.2104   1.2166   1.2171   1.2786   1.2805
     1.3080   1.3117   1.3142   1.3196   1.3282   1.3298   1.3496   1.3524
     1.3565   1.3871   1.4259   1.4474   1.4533   1.4724   1.4739   1.4802
     1.4967   1.4991   1.5060   1.5087   1.5088   1.5365   1.5493   1.5662
     1.5672   1.5674   1.5693   1.5830   1.6005   1.6267   1.6357   1.6438
     1.6449   1.6481   1.6482   1.6507   1.6542   1.6942   1.7041   1.7395
     1.7419   1.7437   1.7554   1.7605   1.7852   1.7927   1.7934   1.7946
     1.7952   1.8017   1.8073   1.8553   1.8590   1.8595   1.8617   1.8741
     1.8750   1.8788   1.9064   1.9086   1.9116   1.9205   1.9341   1.9355
     1.9399   1.9404   1.9412   1.9624   1.9634   1.9685   1.9752   1.9934
     1.9965   2.0198   2.0317   2.0330   2.0870   2.0885   2.0982   2.0997
     2.1001   2.1002   2.1035   2.1039   2.1076   2.1168   2.1202   2.1213
     2.1308   2.1422   2.1425   2.1489   2.1491   2.1538   2.1550   2.2235
     2.2286   2.2308   2.2396   2.3029   2.3030   2.3082   2.3088   2.3093
     2.3124   2.3138   2.3245   2.3266   2.3294   2.3418   2.3542   2.3718
     2.3850   2.3858   2.3882   2.3924   2.4075   2.4125   2.4129   2.4140
     2.4155   2.4263   2.4354   2.4376   2.4404   2.4515   2.4518   2.5353
     2.5438   2.5676   2.5691   2.5945   2.5951   2.5972   2.5983   2.6261
     2.6266   2.6349   2.6498   2.6637   2.6685   2.6719   2.6745   2.6874
     2.6931   2.7087   2.7098   2.7109   2.7120   2.7237   2.7250   2.7408
     2.7436   2.7467   2.7550   2.7977   2.7979   2.8012   2.8018   2.8126
     2.8131   2.8309   2.8344   2.8605   2.8624   2.8733   2.8766   2.8970
     2.8972   2.9179   2.9239   2.9326   2.9423   2.9783   2.9796   3.0000
     3.0017   3.0038   3.0056   3.0250   3.0340   3.0342   3.0363   3.0372
     3.0393   3.0434   3.0632   3.0649   3.0653   3.0654   3.0661   3.0810
     3.0828   3.0854   3.0981   3.1019   3.1145   3.1184   3.1274   3.1281
     3.1291   3.1375   3.1428   3.1623   3.1700   3.1822   3.1828   3.1849
     3.1850   3.2628   3.3076   3.8083   3.8496   3.8580   3.8775   4.3424
     4.3935   4.3941   4.3943   4.3948   4.6563   4.6599   4.6616   4.6625
     4.9854   5.0082   5.0535   5.1401   5.1950   5.2038   5.2209   5.2349
     5.2365   5.4987   5.8344   6.0855   6.1058   6.1129   6.1634   6.1965
     6.1977   6.2310   6.2573   6.6305   6.7460   6.9665   7.0752   7.4968
     7.5060   7.5113   7.7052   7.8530   7.9798   8.2704   8.3721   8.4280
     8.6278   8.6366   8.6408   8.6801   8.9241   8.9688   9.0003   9.2011
     9.2762   9.2848   9.2963   9.3039   9.4480   9.5860   9.6291   9.7674
     9.8297   9.9310   9.9349   9.9580   9.9983  10.2688  10.3060  10.3926
    10.4235  10.4757  10.5645  10.5872  10.6105  10.8042  10.8669  11.0255
    11.0342  11.1265  11.2610  11.2879  11.3213  11.4093  11.4761  11.4931
    11.6157  11.6760  11.7561  12.0274  12.1407  12.1619  12.3181  12.3300
    12.3397  12.3604  12.4154  12.6155  12.6998  12.8074  12.8711  12.9438
    13.0060  13.0320  13.0954  13.1343  13.1896  13.2734  13.2791  13.2876
    13.3407  13.3451  13.3528  13.3996  13.5939  13.6398  13.7160  13.7325
    13.8160  13.8297

          k = 0.2500-0.7217 0.0000 ( 61343 PWs)   bands (ev):

  -107.7492-107.7430-107.7411-107.7405-107.7379-107.7375-107.7371-107.7364
  -107.7363-107.7359-107.7352-107.7349-107.7346-107.7340-107.7338-107.7334
  -107.7330-107.7325-107.7314-107.7308-107.7294-107.7277-107.7276-107.7265
  -107.7247-107.7245-107.7236-107.7216-107.7207-107.7194-107.7193-107.7183
  -107.7180-107.7174-107.7172-107.7143-107.5507-107.5481-107.5480-107.5335
  -107.5309-107.5308-107.5199-107.5174-107.5173-107.4833-107.4819-107.4816
  -107.4791-107.4786-107.4780-107.4778-107.4773-107.4771 -65.1961 -65.1921
   -65.1902 -65.1899 -65.1888 -65.1886 -65.1877 -65.1864 -65.1852 -65.1832
   -65.1828 -65.1819 -65.1791 -65.1780 -65.1771 -65.1763 -65.1762 -65.1740
   -65.1731 -65.1707 -65.1703 -65.1700 -65.1694 -65.1684 -65.1676 -65.1673
   -65.1662 -65.1655 -65.1635 -65.1625 -65.1600 -65.1578 -65.1575 -65.1565
   -65.1546 -65.1541 -65.1536 -65.1527 -65.1525 -65.1505 -65.1496 -65.1491
   -65.1488 -65.1478 -65.1470 -65.1467 -65.1449 -65.1438 -65.1434 -65.1428
   -65.1425 -65.1424 -65.1421 -65.1411 -65.1406 -65.1400 -65.1394 -65.1390
   -65.1383 -65.1375 -65.1368 -65.1366 -65.1365 -65.1358 -65.1346 -65.1339
   -65.1336 -65.1330 -65.1325 -65.1323 -65.1320 -65.1315 -65.1308 -65.1306
   -65.1305 -65.1299 -65.1293 -65.1287 -65.1284 -65.1274 -65.1273 -65.1268
   -65.1259 -65.1258 -65.1255 -65.1251 -65.1247 -65.1246 -65.1245 -65.1241
   -65.1228 -65.1218 -65.1216 -65.1202 -65.1195 -65.1191 -65.1187 -65.1185
   -65.1180 -65.1176 -65.1158 -65.1151 -65.1146 -65.1139 -65.1105 -65.1087
   -65.1083 -65.1046 -65.0076 -65.0060 -65.0040 -64.9932 -64.9880 -64.9853
   -64.9752 -64.9740 -64.9699 -64.9641 -64.9603 -64.9562 -64.9548 -64.9531
   -64.9524 -64.9521 -64.9494 -64.9482 -64.9450 -64.9428 -64.9401 -64.9390
   -64.9387 -64.9363 -64.9348 -64.9324 -64.9323 -64.9194 -64.9174 -64.9165
   -64.9164 -64.9131 -64.9109 -64.9108 -64.9107 -64.9106 -64.9100 -64.9097
   -64.9033 -64.8987 -64.8986 -64.8980 -64.8957 -64.8956 -64.8946 -64.8552
   -64.8539 -64.8535 -64.8513 -64.8507 -64.8502 -64.8500 -64.8495 -64.8493
   -12.9703 -10.2200 -10.2171  -6.6105  -6.6029  -4.6249  -3.3782  -3.0108
    -2.7800  -2.7084  -2.5731  -2.5719  -2.1303  -2.0886  -2.0063  -1.9890
    -1.8662  -1.2375  -1.1450  -0.9848  -0.6869  -0.5608  -0.5592  -0.2192
    -0.2125  -0.1986  -0.1479  -0.1355  -0.1192   0.0306   0.0308   0.0415
     0.2005   0.2040   0.2253   0.2257   0.2414   0.2916   0.3018   0.3023
     0.3207   0.4196   0.4216   0.4234   0.4242   0.4878   0.4999   0.5591
     0.5634   0.5737   0.5851   0.6149   0.6151   0.6166   0.6341   0.6360
     0.6908   0.6934   0.7283   0.7300   0.7587   0.7588   0.7881   0.7942
     0.7963   0.8550   0.8562   0.8870   0.9069   0.9242   0.9250   0.9899
     0.9996   1.0493   1.0685   1.0702   1.0905   1.0929   1.1530   1.1593
     1.1646   1.1810   1.1817   1.1885   1.2320   1.2557   1.2584   1.2999
     1.3027   1.3169   1.3257   1.3285   1.3337   1.3521   1.3529   1.3962
     1.4057   1.4109   1.4144   1.4188   1.4280   1.4451   1.4495   1.4514
     1.4587   1.4752   1.4820   1.5015   1.5080   1.5129   1.5282   1.5608
     1.5691   1.5761   1.6044   1.6088   1.6095   1.6222   1.6362   1.6436
     1.6577   1.6678   1.6881   1.7008   1.7016   1.7095   1.7207   1.7217
     1.7387   1.7540   1.7586   1.7628   1.7633   1.7987   1.8051   1.8089
     1.8093   1.8169   1.8269   1.8363   1.8388   1.8544   1.8561   1.8672
     1.8698   1.8915   1.9019   1.9183   1.9218   1.9341   1.9400   1.9460
     1.9469   1.9553   1.9593   1.9673   1.9680   1.9697   1.9807   1.9818
     1.9901   2.0010   2.0076   2.0135   2.0342   2.0384   2.0487   2.0536
     2.0687   2.0701   2.0718   2.0740   2.0756   2.0793   2.0814   2.0866
     2.0869   2.0972   2.1509   2.1520   2.2106   2.2142   2.2154   2.2201
     2.2240   2.2282   2.2463   2.2478   2.2716   2.2798   2.2841   2.2955
     2.3128   2.3150   2.3519   2.3529   2.3568   2.3852   2.3860   2.3871
     2.3880   2.3887   2.3917   2.3939   2.3972   2.4069   2.4245   2.4268
     2.4635   2.4665   2.4746   2.4749   2.4817   2.4883   2.4976   2.5189
     2.5243   2.5293   2.5405   2.5576   2.5615   2.5799   2.5911   2.5919
     2.6034   2.6078   2.6337   2.6397   2.6454   2.6555   2.6767   2.6805
     2.6982   2.7024   2.7033   2.7214   2.7264   2.7431   2.7486   2.7512
     2.7529   2.7583   2.7620   2.7653   2.7722   2.7795   2.7945   2.8125
     2.8393   2.8411   2.8420   2.8534   2.8921   2.8936   2.9070   2.9146
     2.9381   2.9505   2.9537   2.9597   2.9612   2.9654   2.9728   3.0031
     3.0064   3.0067   3.0124   3.0150   3.0232   3.0264   3.0286   3.0298
     3.0351   3.0365   3.0382   3.0398   3.0438   3.0554   3.0580   3.0694
     3.0709   3.0820   3.0825   3.0903   3.0961   3.1094   3.1158   3.1232
     3.1244   3.1407   3.1620   3.1645   3.1826   3.2026   3.2039   3.3658
     3.3829   3.4713   3.4717   3.5682   3.5705   3.6958   3.8914   3.9010
     4.2828   4.3178   4.3784   4.3805   4.3964   4.6540   4.7501   4.7763
     4.7852   4.7858   4.9596   5.2227   5.2517   5.2554   5.7072   5.7355
     5.7734   5.8906   5.9818   5.9967   6.0019   6.1401   6.1538   6.2170
     6.3063   6.6462   6.7096   6.7327   6.8960   6.9766   7.0627   7.0709
     7.1217   7.1830   7.2260   7.4545   7.6723   7.7374   7.9764   8.0081
     8.4574   8.5604   8.5649   8.6677   8.7522   8.9212   9.1601   9.1752
     9.2433   9.3416   9.3763   9.5072   9.5392   9.6190   9.7283   9.7619
     9.8175   9.9932  10.0351  10.1328  10.1917  10.3880  10.4205  10.4879
    10.5362  10.6425  10.7923  10.8821  10.9340  11.0097  11.1026  11.2046
    11.2105  11.2695  11.4513  11.5460  11.5580  11.6217  11.6292  11.7221
    11.7715  11.8717  11.9093  11.9482  11.9764  12.0873  12.1255  12.1989
    12.3069  12.3945  12.4742  12.4876  12.5755  12.6106  12.6450  12.6925
    12.7246  12.8034  12.8274  12.8691  12.9536  13.0773  13.1591  13.1799
    13.3192  13.3400  13.3883  13.4369  13.5041  13.5639  13.6029  13.6636
    13.7138  13.7317

          k =-0.2500 0.1443 0.0000 ( 61417 PWs)   bands (ev):

  -107.7493-107.7436-107.7403-107.7394-107.7385-107.7379-107.7372-107.7370
  -107.7361-107.7354-107.7354-107.7346-107.7346-107.7341-107.7340-107.7335
  -107.7333-107.7326-107.7309-107.7303-107.7296-107.7279-107.7278-107.7265
  -107.7246-107.7245-107.7240-107.7213-107.7198-107.7197-107.7193-107.7186
  -107.7183-107.7175-107.7170-107.7143-107.5507-107.5481-107.5480-107.5335
  -107.5309-107.5308-107.5198-107.5174-107.5174-107.4842-107.4812-107.4802
  -107.4800-107.4787-107.4786-107.4781-107.4770-107.4770 -65.1984 -65.1904
   -65.1885 -65.1874 -65.1867 -65.1862 -65.1854 -65.1848 -65.1827 -65.1823
   -65.1810 -65.1808 -65.1797 -65.1793 -65.1752 -65.1746 -65.1736 -65.1721
   -65.1710 -65.1705 -65.1696 -65.1694 -65.1692 -65.1685 -65.1672 -65.1671
   -65.1664 -65.1653 -65.1621 -65.1619 -65.1600 -65.1591 -65.1590 -65.1581
   -65.1578 -65.1568 -65.1565 -65.1555 -65.1541 -65.1539 -65.1520 -65.1518
   -65.1498 -65.1484 -65.1483 -65.1478 -65.1472 -65.1471 -65.1459 -65.1455
   -65.1444 -65.1439 -65.1431 -65.1426 -65.1422 -65.1411 -65.1406 -65.1405
   -65.1391 -65.1387 -65.1381 -65.1381 -65.1376 -65.1371 -65.1365 -65.1351
   -65.1342 -65.1333 -65.1331 -65.1323 -65.1318 -65.1313 -65.1308 -65.1305
   -65.1301 -65.1295 -65.1294 -65.1287 -65.1283 -65.1281 -65.1280 -65.1270
   -65.1267 -65.1256 -65.1252 -65.1242 -65.1239 -65.1236 -65.1231 -65.1227
   -65.1227 -65.1217 -65.1201 -65.1196 -65.1195 -65.1166 -65.1165 -65.1164
   -65.1160 -65.1151 -65.1138 -65.1127 -65.1126 -65.1118 -65.1094 -65.1087
   -65.1056 -65.1025 -65.0054 -65.0027 -65.0022 -64.9931 -64.9870 -64.9839
   -64.9817 -64.9772 -64.9769 -64.9657 -64.9613 -64.9547 -64.9531 -64.9516
   -64.9504 -64.9491 -64.9449 -64.9446 -64.9439 -64.9437 -64.9434 -64.9373
   -64.9348 -64.9348 -64.9324 -64.9323 -64.9318 -64.9315 -64.9260 -64.9258
   -64.9230 -64.9131 -64.9108 -64.9108 -64.9076 -64.9074 -64.9064 -64.9035
   -64.9032 -64.8994 -64.8979 -64.8957 -64.8957 -64.8955 -64.8924 -64.8560
   -64.8532 -64.8523 -64.8521 -64.8509 -64.8507 -64.8503 -64.8492 -64.8492
   -12.9711 -10.2178 -10.2152  -6.6116  -6.6033  -4.6526  -3.7980  -3.1878
    -3.0391  -2.7048  -2.2650  -2.1973  -2.0849  -2.0481  -1.6534  -1.4860
    -1.4833  -1.2572  -1.0155  -1.0026  -0.9171  -0.7922  -0.4274  -0.4268
    -0.3446  -0.3381  -0.2439  -0.2160  -0.1464  -0.1436  -0.1405  -0.0988
    -0.0076   0.0263   0.0324   0.1286   0.1317   0.1321   0.3001   0.3129
     0.3364   0.4018   0.4026   0.5810   0.5926   0.6252   0.6252   0.6434
     0.6614   0.6614   0.6803   0.6819   0.7222   0.7299   0.7318   0.7333
     0.7436   0.7444   0.7863   0.7863   0.8210   0.8212   0.8513   0.8514
     0.8526   0.9021   0.9048   0.9182   0.9182   0.9378   0.9387   0.9507
     0.9510   0.9775   0.9785   1.0271   1.0936   1.0941   1.0945   1.1223
     1.1224   1.1327   1.1359   1.1663   1.1671   1.2065   1.2088   1.2093
     1.2768   1.2773   1.2819   1.2978   1.3169   1.3201   1.3635   1.3665
     1.3722   1.3949   1.3951   1.4066   1.4284   1.4677   1.4806   1.4875
     1.4891   1.5043   1.5148   1.5351   1.5556   1.5671   1.5759   1.5843
     1.5926   1.5977   1.6298   1.6527   1.6669   1.6958   1.6998   1.7076
     1.7089   1.7209   1.7248   1.7325   1.7598   1.7668   1.7698   1.7805
     1.7825   1.7923   1.7982   1.8038   1.8150   1.8202   1.8254   1.8384
     1.8503   1.8569   1.8576   1.8640   1.8691   1.8785   1.8828   1.8878
     1.8901   1.8942   1.8979   1.8986   1.9194   1.9235   1.9294   1.9391
     1.9422   1.9559   1.9571   1.9694   1.9742   1.9784   1.9796   2.0020
     2.0122   2.0142   2.0272   2.0361   2.0363   2.0389   2.0449   2.0506
     2.0664   2.0716   2.0971   2.1041   2.1143   2.1153   2.1216   2.1224
     2.1359   2.1497   2.1506   2.1556   2.1780   2.1799   2.1838   2.2012
     2.2255   2.2283   2.2587   2.2707   2.2745   2.2757   2.2816   2.2842
     2.3345   2.3545   2.3779   2.3780   2.3842   2.3862   2.4013   2.4023
     2.4318   2.4322   2.4434   2.4446   2.4473   2.4504   2.4705   2.4727
     2.5105   2.5156   2.5202   2.5214   2.5282   2.5527   2.5561   2.5579
     2.5601   2.5629   2.5928   2.6062   2.6093   2.6117   2.6151   2.6289
     2.6354   2.6360   2.6535   2.6555   2.6589   2.6592   2.6698   2.6738
     2.6900   2.6978   2.7429   2.7494   2.7521   2.7777   2.7805   2.7911
     2.7947   2.7959   2.7965   2.7996   2.8136   2.8166   2.8175   2.8301
     2.8323   2.8363   2.8388   2.8581   2.8809   2.8855   2.8857   2.8875
     2.8987   2.9009   2.9156   2.9192   2.9267   2.9283   2.9749   2.9750
     2.9765   2.9765   2.9778   2.9899   2.9979   2.9980   3.0001   3.0055
     3.0089   3.0095   3.0160   3.0162   3.0219   3.0256   3.0334   3.0360
     3.0541   3.0642   3.0646   3.0659   3.0677   3.0715   3.0720   3.0730
     3.0955   3.1037   3.1160   3.1175   3.1206   3.1247   3.1348   3.1381
     3.1859   3.2278   3.2811   3.3521   3.3796   3.3806   3.4713   3.5400
     3.5405   3.7929   3.8373   3.8451   3.8520   3.8900   4.1548   4.3909
     4.5559   4.8119   4.8197   5.0466   5.1376   5.1552   5.1855   5.9089
     5.9100   6.1296   6.2189   6.2825   6.3034   6.3035   6.5174   6.7342
     6.8314   6.9181   6.9762   7.1107   7.1602   7.3229   7.5297   7.8052
     7.8351   7.8508   8.0097   8.1024   8.2859   8.3022   8.3138   8.4326
     8.4820   8.7360   8.7765   8.7791   8.9151   8.9780   9.3127   9.3217
     9.3273   9.4600   9.5692   9.7080   9.8211   9.8283   9.9151   9.9807
    10.0365  10.0619  10.0998  10.1890  10.2714  10.4132  10.4773  10.4830
    10.5579  10.5698  10.6177  10.7162  10.7303  10.8040  10.8254  10.8935
    10.9410  11.0014  11.0138  11.0570  11.1141  11.2784  11.4618  11.4744
    11.5164  11.5394  11.6017  11.6740  11.7490  11.7889  11.8966  11.9811
    12.0726  12.1798  12.2398  12.3239  12.3847  12.4185  12.4917  12.5002
    12.5588  12.6170  12.6959  12.7484  12.8262  12.8395  12.9052  12.9085
    12.9828  13.0648  13.1378  13.1564  13.2108  13.2658  13.3152  13.4129
    13.4174  13.4519

          k = 0.2500 0.1443 0.0000 ( 61417 PWs)   bands (ev):

  -107.7493-107.7436-107.7403-107.7394-107.7385-107.7379-107.7372-107.7370
  -107.7361-107.7354-107.7354-107.7346-107.7346-107.7341-107.7340-107.7335
  -107.7333-107.7326-107.7309-107.7303-107.7296-107.7279-107.7278-107.7265
  -107.7246-107.7245-107.7240-107.7213-107.7198-107.7197-107.7193-107.7186
  -107.7183-107.7175-107.7170-107.7143-107.5507-107.5481-107.5480-107.5335
  -107.5309-107.5308-107.5198-107.5174-107.5174-107.4842-107.4812-107.4802
  -107.4800-107.4787-107.4786-107.4781-107.4770-107.4770 -65.1984 -65.1904
   -65.1885 -65.1874 -65.1867 -65.1862 -65.1854 -65.1848 -65.1827 -65.1823
   -65.1810 -65.1808 -65.1797 -65.1793 -65.1752 -65.1746 -65.1736 -65.1721
   -65.1710 -65.1705 -65.1696 -65.1694 -65.1692 -65.1685 -65.1672 -65.1671
   -65.1664 -65.1653 -65.1621 -65.1619 -65.1600 -65.1591 -65.1590 -65.1581
   -65.1578 -65.1568 -65.1565 -65.1555 -65.1541 -65.1539 -65.1520 -65.1518
   -65.1498 -65.1484 -65.1483 -65.1478 -65.1472 -65.1471 -65.1459 -65.1455
   -65.1444 -65.1439 -65.1431 -65.1426 -65.1422 -65.1411 -65.1406 -65.1405
   -65.1391 -65.1387 -65.1381 -65.1381 -65.1376 -65.1371 -65.1365 -65.1351
   -65.1342 -65.1333 -65.1331 -65.1323 -65.1318 -65.1313 -65.1308 -65.1305
   -65.1301 -65.1295 -65.1294 -65.1287 -65.1283 -65.1281 -65.1280 -65.1270
   -65.1267 -65.1256 -65.1252 -65.1242 -65.1239 -65.1236 -65.1231 -65.1227
   -65.1227 -65.1217 -65.1201 -65.1197 -65.1195 -65.1166 -65.1165 -65.1164
   -65.1160 -65.1151 -65.1138 -65.1127 -65.1126 -65.1118 -65.1094 -65.1087
   -65.1056 -65.1025 -65.0054 -65.0027 -65.0022 -64.9931 -64.9870 -64.9839
   -64.9817 -64.9772 -64.9769 -64.9657 -64.9613 -64.9547 -64.9531 -64.9516
   -64.9504 -64.9491 -64.9449 -64.9446 -64.9439 -64.9437 -64.9434 -64.9373
   -64.9348 -64.9348 -64.9324 -64.9323 -64.9318 -64.9315 -64.9260 -64.9258
   -64.9230 -64.9131 -64.9108 -64.9108 -64.9076 -64.9074 -64.9064 -64.9035
   -64.9032 -64.8994 -64.8979 -64.8957 -64.8957 -64.8955 -64.8924 -64.8560
   -64.8532 -64.8523 -64.8521 -64.8509 -64.8507 -64.8503 -64.8492 -64.8492
   -12.9711 -10.2178 -10.2151  -6.6115  -6.6034  -4.6526  -3.7980  -3.1878
    -3.0391  -2.7048  -2.2650  -2.1973  -2.0850  -2.0480  -1.6534  -1.4860
    -1.4833  -1.2572  -1.0155  -1.0026  -0.9171  -0.7922  -0.4274  -0.4268
    -0.3446  -0.3381  -0.2439  -0.2160  -0.1464  -0.1437  -0.1406  -0.0987
    -0.0076   0.0263   0.0324   0.1286   0.1317   0.1321   0.3001   0.3129
     0.3364   0.4018   0.4026   0.5810   0.5926   0.6252   0.6252   0.6434
     0.6614   0.6614   0.6803   0.6819   0.7222   0.7299   0.7318   0.7333
     0.7436   0.7444   0.7863   0.7863   0.8210   0.8212   0.8513   0.8514
     0.8526   0.9021   0.9048   0.9182   0.9182   0.9378   0.9387   0.9507
     0.9510   0.9775   0.9785   1.0271   1.0936   1.0941   1.0945   1.1223
     1.1224   1.1327   1.1359   1.1663   1.1671   1.2065   1.2088   1.2093
     1.2768   1.2773   1.2819   1.2978   1.3169   1.3201   1.3635   1.3665
     1.3722   1.3949   1.3951   1.4066   1.4284   1.4677   1.4806   1.4875
     1.4891   1.5043   1.5148   1.5351   1.5556   1.5671   1.5759   1.5843
     1.5926   1.5977   1.6298   1.6527   1.6669   1.6958   1.6998   1.7076
     1.7089   1.7209   1.7248   1.7325   1.7598   1.7668   1.7698   1.7805
     1.7825   1.7923   1.7982   1.8038   1.8150   1.8202   1.8254   1.8384
     1.8503   1.8569   1.8576   1.8640   1.8691   1.8785   1.8828   1.8878
     1.8901   1.8942   1.8979   1.8986   1.9194   1.9235   1.9294   1.9391
     1.9422   1.9559   1.9571   1.9694   1.9742   1.9784   1.9796   2.0020
     2.0122   2.0142   2.0272   2.0361   2.0363   2.0389   2.0449   2.0506
     2.0664   2.0717   2.0971   2.1041   2.1143   2.1153   2.1216   2.1224
     2.1359   2.1497   2.1506   2.1556   2.1780   2.1799   2.1838   2.2011
     2.2255   2.2283   2.2587   2.2707   2.2745   2.2757   2.2816   2.2842
     2.3345   2.3545   2.3779   2.3780   2.3842   2.3862   2.4013   2.4023
     2.4318   2.4322   2.4434   2.4446   2.4473   2.4504   2.4705   2.4727
     2.5105   2.5156   2.5202   2.5214   2.5282   2.5527   2.5561   2.5579
     2.5601   2.5629   2.5928   2.6062   2.6093   2.6117   2.6151   2.6289
     2.6354   2.6360   2.6535   2.6555   2.6589   2.6592   2.6698   2.6738
     2.6900   2.6978   2.7429   2.7494   2.7521   2.7777   2.7805   2.7911
     2.7947   2.7959   2.7965   2.7996   2.8136   2.8166   2.8175   2.8301
     2.8323   2.8363   2.8388   2.8581   2.8809   2.8855   2.8857   2.8875
     2.8987   2.9009   2.9156   2.9191   2.9267   2.9283   2.9749   2.9750
     2.9765   2.9765   2.9778   2.9899   2.9979   2.9980   3.0001   3.0055
     3.0089   3.0095   3.0160   3.0162   3.0219   3.0256   3.0334   3.0360
     3.0541   3.0642   3.0646   3.0659   3.0677   3.0715   3.0720   3.0730
     3.0955   3.1037   3.1160   3.1175   3.1206   3.1247   3.1348   3.1381
     3.1859   3.2278   3.2811   3.3521   3.3796   3.3806   3.4713   3.5400
     3.5405   3.7929   3.8373   3.8451   3.8520   3.8900   4.1548   4.3909
     4.5559   4.8119   4.8197   5.0466   5.1376   5.1552   5.1855   5.9089
     5.9100   6.1296   6.2189   6.2825   6.3034   6.3035   6.5174   6.7342
     6.8314   6.9181   6.9762   7.1107   7.1602   7.3229   7.5297   7.8052
     7.8351   7.8508   8.0097   8.1024   8.2859   8.3022   8.3138   8.4326
     8.4820   8.7360   8.7765   8.7791   8.9151   8.9781   9.3127   9.3217
     9.3273   9.4600   9.5692   9.7080   9.8211   9.8282   9.9151   9.9807
    10.0365  10.0619  10.0998  10.1890  10.2714  10.4132  10.4773  10.4830
    10.5579  10.5698  10.6177  10.7162  10.7303  10.8040  10.8254  10.8935
    10.9410  11.0014  11.0138  11.0570  11.1141  11.2784  11.4618  11.4744
    11.5164  11.5394  11.6017  11.6740  11.7490  11.7889  11.8966  11.9811
    12.0726  12.1798  12.2398  12.3239  12.3847  12.4185  12.4917  12.5002
    12.5588  12.6170  12.6959  12.7484  12.8262  12.8394  12.9052  12.9085
    12.9828  13.0648  13.1378  13.1564  13.2108  13.2658  13.3152  13.4129
    13.4174  13.4519

          k = 0.5000-0.2887 0.0000 ( 61408 PWs)   bands (ev):

  -107.7492-107.7429-107.7415-107.7397-107.7386-107.7374-107.7368-107.7366
  -107.7363-107.7354-107.7352-107.7351-107.7348-107.7342-107.7337-107.7334
  -107.7329-107.7325-107.7317-107.7303-107.7297-107.7278-107.7276-107.7264
  -107.7247-107.7245-107.7236-107.7218-107.7201-107.7199-107.7193-107.7184
  -107.7176-107.7175-107.7173-107.7143-107.5507-107.5481-107.5480-107.5335
  -107.5309-107.5308-107.5199-107.5174-107.5173-107.4831-107.4827-107.4804
  -107.4803-107.4781-107.4780-107.4777-107.4774-107.4773 -65.1956 -65.1937
   -65.1914 -65.1902 -65.1876 -65.1864 -65.1855 -65.1850 -65.1838 -65.1838
   -65.1833 -65.1830 -65.1826 -65.1817 -65.1788 -65.1745 -65.1723 -65.1723
   -65.1720 -65.1714 -65.1709 -65.1706 -65.1702 -65.1701 -65.1680 -65.1673
   -65.1668 -65.1658 -65.1611 -65.1599 -65.1593 -65.1591 -65.1584 -65.1576
   -65.1567 -65.1536 -65.1530 -65.1517 -65.1500 -65.1497 -65.1496 -65.1492
   -65.1487 -65.1475 -65.1469 -65.1468 -65.1463 -65.1450 -65.1448 -65.1437
   -65.1424 -65.1422 -65.1419 -65.1416 -65.1414 -65.1410 -65.1395 -65.1392
   -65.1376 -65.1366 -65.1362 -65.1358 -65.1353 -65.1349 -65.1347 -65.1347
   -65.1346 -65.1344 -65.1339 -65.1327 -65.1318 -65.1315 -65.1310 -65.1304
   -65.1302 -65.1298 -65.1286 -65.1279 -65.1275 -65.1274 -65.1273 -65.1265
   -65.1263 -65.1260 -65.1247 -65.1247 -65.1244 -65.1238 -65.1238 -65.1237
   -65.1227 -65.1224 -65.1223 -65.1201 -65.1199 -65.1195 -65.1193 -65.1191
   -65.1167 -65.1164 -65.1160 -65.1154 -65.1142 -65.1132 -65.1127 -65.1118
   -65.1058 -65.1045 -65.0086 -65.0044 -65.0038 -64.9950 -64.9890 -64.9811
   -64.9788 -64.9720 -64.9695 -64.9645 -64.9619 -64.9575 -64.9546 -64.9539
   -64.9512 -64.9475 -64.9470 -64.9467 -64.9465 -64.9463 -64.9448 -64.9423
   -64.9355 -64.9348 -64.9324 -64.9323 -64.9281 -64.9278 -64.9158 -64.9157
   -64.9156 -64.9152 -64.9131 -64.9108 -64.9108 -64.9075 -64.9074 -64.9070
   -64.9045 -64.9042 -64.8980 -64.8957 -64.8956 -64.8956 -64.8951 -64.8550
   -64.8546 -64.8524 -64.8523 -64.8503 -64.8502 -64.8500 -64.8495 -64.8494
   -12.9703 -10.2212 -10.2160  -6.6148  -6.5987  -4.6246  -3.1731  -3.1725
    -3.0110  -2.7086  -2.5839  -2.5805  -2.1423  -2.0560  -1.7139  -1.6633
    -1.6398  -1.6388  -1.1622  -1.1323  -1.0182  -0.6116  -0.5272  -0.4158
    -0.3941  -0.1798  -0.1021  -0.0266   0.1456   0.1576   0.1768   0.1771
     0.1776   0.1787   0.1810   0.2633   0.3253   0.3411   0.3437   0.3544
     0.3562   0.3750   0.3751   0.3758   0.3760   0.4291   0.4293   0.4303
     0.4303   0.5589   0.5916   0.5916   0.5945   0.5946   0.6208   0.6729
     0.7729   0.7730   0.7740   0.7743   0.7813   0.8017   0.8113   0.8209
     0.8216   0.8249   0.8251   0.9459   0.9463   0.9476   0.9477   0.9678
     0.9708   1.0514   1.0593   1.0605   1.0655   1.0658   1.1074   1.1078
     1.1500   1.1506   1.2096   1.2104   1.2166   1.2171   1.2786   1.2805
     1.3080   1.3117   1.3142   1.3196   1.3282   1.3298   1.3495   1.3524
     1.3565   1.3871   1.4259   1.4474   1.4533   1.4724   1.4739   1.4802
     1.4967   1.4991   1.5060   1.5087   1.5088   1.5365   1.5493   1.5662
     1.5672   1.5674   1.5693   1.5830   1.6005   1.6267   1.6357   1.6438
     1.6449   1.6481   1.6482   1.6507   1.6542   1.6942   1.7041   1.7395
     1.7419   1.7437   1.7554   1.7605   1.7852   1.7927   1.7934   1.7946
     1.7952   1.8017   1.8073   1.8553   1.8590   1.8595   1.8617   1.8741
     1.8750   1.8788   1.9064   1.9086   1.9115   1.9205   1.9341   1.9355
     1.9399   1.9405   1.9412   1.9624   1.9634   1.9685   1.9752   1.9934
     1.9965   2.0198   2.0317   2.0330   2.0870   2.0885   2.0982   2.0997
     2.1001   2.1002   2.1035   2.1039   2.1076   2.1168   2.1202   2.1213
     2.1308   2.1422   2.1425   2.1489   2.1491   2.1538   2.1550   2.2235
     2.2286   2.2308   2.2396   2.3029   2.3030   2.3082   2.3088   2.3093
     2.3124   2.3138   2.3245   2.3266   2.3294   2.3418   2.3542   2.3718
     2.3850   2.3858   2.3882   2.3924   2.4075   2.4125   2.4129   2.4140
     2.4155   2.4263   2.4354   2.4376   2.4404   2.4515   2.4518   2.5353
     2.5438   2.5676   2.5691   2.5945   2.5951   2.5972   2.5983   2.6261
     2.6266   2.6349   2.6498   2.6637   2.6685   2.6719   2.6745   2.6874
     2.6931   2.7087   2.7098   2.7109   2.7120   2.7237   2.7250   2.7408
     2.7436   2.7467   2.7550   2.7977   2.7979   2.8012   2.8018   2.8126
     2.8131   2.8309   2.8344   2.8605   2.8624   2.8733   2.8766   2.8970
     2.8972   2.9179   2.9239   2.9326   2.9423   2.9783   2.9796   3.0000
     3.0017   3.0038   3.0056   3.0250   3.0340   3.0342   3.0363   3.0372
     3.0393   3.0434   3.0632   3.0649   3.0653   3.0654   3.0661   3.0810
     3.0828   3.0854   3.0981   3.1019   3.1145   3.1184   3.1274   3.1281
     3.1291   3.1375   3.1428   3.1623   3.1700   3.1822   3.1828   3.1849
     3.1850   3.2628   3.3076   3.8083   3.8496   3.8580   3.8775   4.3424
     4.3935   4.3941   4.3943   4.3948   4.6563   4.6599   4.6616   4.6625
     4.9854   5.0082   5.0535   5.1401   5.1950   5.2037   5.2209   5.2349
     5.2365   5.4986   5.8344   6.0855   6.1058   6.1130   6.1634   6.1965
     6.1977   6.2310   6.2573   6.6305   6.7460   6.9666   7.0751   7.4968
     7.5060   7.5113   7.7052   7.8531   7.9797   8.2704   8.3721   8.4279
     8.6278   8.6366   8.6408   8.6801   8.9241   8.9688   9.0003   9.2010
     9.2762   9.2848   9.2963   9.3039   9.4481   9.5861   9.6291   9.7674
     9.8297   9.9310   9.9349   9.9580   9.9983  10.2688  10.3060  10.3927
    10.4235  10.4757  10.5645  10.5872  10.6105  10.8042  10.8669  11.0255
    11.0343  11.1265  11.2610  11.2879  11.3213  11.4093  11.4761  11.4932
    11.6157  11.6760  11.7561  12.0273  12.1408  12.1619  12.3182  12.3300
    12.3398  12.3604  12.4155  12.6154  12.7000  12.8073  12.8711  12.9438
    13.0059  13.0320  13.0954  13.1343  13.1896  13.2734  13.2791  13.2876
    13.3407  13.3451  13.3528  13.3996  13.5939  13.6398  13.7161  13.7325
    13.8160  13.8298

          k =-0.5000-0.2887 0.0000 ( 61408 PWs)   bands (ev):

  -107.7492-107.7429-107.7415-107.7397-107.7386-107.7374-107.7368-107.7366
  -107.7363-107.7354-107.7352-107.7351-107.7348-107.7342-107.7337-107.7334
  -107.7329-107.7325-107.7317-107.7303-107.7297-107.7278-107.7276-107.7264
  -107.7247-107.7245-107.7236-107.7218-107.7201-107.7199-107.7193-107.7184
  -107.7176-107.7175-107.7173-107.7143-107.5507-107.5481-107.5480-107.5335
  -107.5309-107.5308-107.5199-107.5174-107.5173-107.4831-107.4827-107.4804
  -107.4803-107.4781-107.4780-107.4777-107.4774-107.4773 -65.1956 -65.1937
   -65.1914 -65.1902 -65.1876 -65.1864 -65.1855 -65.1850 -65.1838 -65.1838
   -65.1833 -65.1830 -65.1826 -65.1817 -65.1788 -65.1745 -65.1723 -65.1723
   -65.1720 -65.1714 -65.1709 -65.1706 -65.1702 -65.1701 -65.1680 -65.1673
   -65.1668 -65.1658 -65.1611 -65.1599 -65.1593 -65.1591 -65.1584 -65.1576
   -65.1567 -65.1536 -65.1530 -65.1517 -65.1500 -65.1497 -65.1496 -65.1492
   -65.1487 -65.1475 -65.1469 -65.1468 -65.1463 -65.1450 -65.1448 -65.1437
   -65.1424 -65.1422 -65.1419 -65.1416 -65.1414 -65.1410 -65.1395 -65.1392
   -65.1376 -65.1366 -65.1362 -65.1358 -65.1353 -65.1349 -65.1347 -65.1347
   -65.1346 -65.1344 -65.1339 -65.1327 -65.1318 -65.1315 -65.1310 -65.1304
   -65.1302 -65.1298 -65.1286 -65.1279 -65.1275 -65.1274 -65.1273 -65.1265
   -65.1263 -65.1260 -65.1247 -65.1247 -65.1244 -65.1238 -65.1238 -65.1237
   -65.1227 -65.1224 -65.1223 -65.1201 -65.1199 -65.1195 -65.1193 -65.1191
   -65.1167 -65.1164 -65.1160 -65.1154 -65.1142 -65.1132 -65.1127 -65.1118
   -65.1058 -65.1045 -65.0086 -65.0044 -65.0038 -64.9950 -64.9890 -64.9811
   -64.9788 -64.9720 -64.9695 -64.9645 -64.9619 -64.9575 -64.9546 -64.9539
   -64.9512 -64.9475 -64.9470 -64.9467 -64.9465 -64.9463 -64.9448 -64.9423
   -64.9355 -64.9348 -64.9324 -64.9323 -64.9281 -64.9278 -64.9158 -64.9157
   -64.9156 -64.9152 -64.9131 -64.9108 -64.9108 -64.9075 -64.9074 -64.9070
   -64.9045 -64.9042 -64.8980 -64.8957 -64.8956 -64.8956 -64.8951 -64.8550
   -64.8546 -64.8524 -64.8523 -64.8503 -64.8502 -64.8500 -64.8495 -64.8494
   -12.9703 -10.2213 -10.2159  -6.6147  -6.5987  -4.6246  -3.1731  -3.1725
    -3.0110  -2.7086  -2.5839  -2.5805  -2.1424  -2.0559  -1.7139  -1.6633
    -1.6398  -1.6388  -1.1622  -1.1323  -1.0182  -0.6116  -0.5272  -0.4158
    -0.3941  -0.1799  -0.1020  -0.0266   0.1456   0.1576   0.1768   0.1771
     0.1776   0.1787   0.1810   0.2633   0.3253   0.3411   0.3437   0.3544
     0.3562   0.3750   0.3751   0.3758   0.3760   0.4291   0.4293   0.4303
     0.4303   0.5589   0.5916   0.5916   0.5945   0.5946   0.6208   0.6729
     0.7729   0.7730   0.7740   0.7743   0.7813   0.8017   0.8113   0.8209
     0.8216   0.8249   0.8251   0.9459   0.9463   0.9476   0.9477   0.9678
     0.9708   1.0514   1.0593   1.0605   1.0655   1.0658   1.1074   1.1078
     1.1500   1.1506   1.2096   1.2104   1.2166   1.2171   1.2786   1.2805
     1.3080   1.3117   1.3142   1.3196   1.3282   1.3298   1.3495   1.3524
     1.3565   1.3871   1.4259   1.4474   1.4533   1.4724   1.4738   1.4802
     1.4967   1.4991   1.5060   1.5087   1.5088   1.5365   1.5493   1.5662
     1.5672   1.5674   1.5693   1.5830   1.6005   1.6267   1.6357   1.6438
     1.6449   1.6481   1.6482   1.6507   1.6542   1.6942   1.7041   1.7395
     1.7419   1.7437   1.7554   1.7605   1.7852   1.7927   1.7934   1.7946
     1.7952   1.8017   1.8073   1.8553   1.8590   1.8595   1.8617   1.8741
     1.8750   1.8788   1.9064   1.9086   1.9115   1.9205   1.9341   1.9355
     1.9399   1.9405   1.9412   1.9624   1.9634   1.9685   1.9752   1.9934
     1.9965   2.0198   2.0317   2.0330   2.0870   2.0885   2.0982   2.0997
     2.1001   2.1002   2.1035   2.1039   2.1076   2.1168   2.1202   2.1213
     2.1308   2.1422   2.1425   2.1489   2.1491   2.1538   2.1550   2.2235
     2.2286   2.2308   2.2396   2.3029   2.3030   2.3082   2.3088   2.3093
     2.3124   2.3138   2.3245   2.3266   2.3294   2.3418   2.3542   2.3718
     2.3850   2.3858   2.3882   2.3924   2.4075   2.4125   2.4129   2.4140
     2.4155   2.4263   2.4354   2.4376   2.4404   2.4515   2.4518   2.5353
     2.5438   2.5676   2.5691   2.5945   2.5951   2.5972   2.5983   2.6261
     2.6266   2.6349   2.6498   2.6637   2.6685   2.6719   2.6745   2.6874
     2.6931   2.7087   2.7098   2.7109   2.7120   2.7237   2.7250   2.7408
     2.7436   2.7467   2.7550   2.7977   2.7979   2.8012   2.8018   2.8126
     2.8131   2.8309   2.8344   2.8605   2.8624   2.8733   2.8766   2.8970
     2.8972   2.9179   2.9239   2.9326   2.9423   2.9783   2.9796   3.0000
     3.0017   3.0038   3.0056   3.0250   3.0340   3.0342   3.0363   3.0372
     3.0393   3.0434   3.0632   3.0649   3.0653   3.0654   3.0661   3.0810
     3.0828   3.0854   3.0981   3.1019   3.1145   3.1184   3.1274   3.1281
     3.1291   3.1375   3.1428   3.1623   3.1700   3.1822   3.1828   3.1849
     3.1850   3.2628   3.3076   3.8083   3.8496   3.8580   3.8775   4.3424
     4.3935   4.3941   4.3943   4.3948   4.6563   4.6599   4.6616   4.6625
     4.9854   5.0082   5.0535   5.1401   5.1950   5.2037   5.2209   5.2349
     5.2365   5.4986   5.8344   6.0855   6.1058   6.1130   6.1634   6.1965
     6.1977   6.2310   6.2573   6.6305   6.7460   6.9666   7.0751   7.4968
     7.5060   7.5113   7.7052   7.8531   7.9797   8.2704   8.3721   8.4279
     8.6278   8.6366   8.6408   8.6801   8.9241   8.9688   9.0003   9.2011
     9.2762   9.2848   9.2963   9.3039   9.4481   9.5861   9.6291   9.7674
     9.8297   9.9310   9.9349   9.9580   9.9983  10.2688  10.3060  10.3927
    10.4235  10.4757  10.5645  10.5872  10.6105  10.8042  10.8669  11.0255
    11.0342  11.1265  11.2610  11.2879  11.3213  11.4093  11.4761  11.4932
    11.6157  11.6760  11.7561  12.0274  12.1408  12.1619  12.3181  12.3301
    12.3398  12.3604  12.4155  12.6154  12.7000  12.8073  12.8711  12.9438
    13.0058  13.0320  13.0954  13.1343  13.1896  13.2734  13.2791  13.2876
    13.3407  13.3451  13.3528  13.3996  13.5939  13.6398  13.7161  13.7325
    13.8160  13.8297

          k =-0.2500-0.7217 0.0000 ( 61343 PWs)   bands (ev):

  -107.7492-107.7430-107.7411-107.7405-107.7379-107.7375-107.7370-107.7364
  -107.7363-107.7359-107.7352-107.7349-107.7346-107.7340-107.7338-107.7334
  -107.7330-107.7325-107.7314-107.7308-107.7294-107.7277-107.7276-107.7265
  -107.7247-107.7245-107.7236-107.7216-107.7207-107.7194-107.7193-107.7183
  -107.7180-107.7174-107.7172-107.7143-107.5507-107.5481-107.5480-107.5335
  -107.5309-107.5308-107.5199-107.5174-107.5173-107.4833-107.4819-107.4816
  -107.4791-107.4786-107.4780-107.4778-107.4773-107.4771 -65.1961 -65.1921
   -65.1902 -65.1899 -65.1888 -65.1886 -65.1877 -65.1864 -65.1852 -65.1832
   -65.1828 -65.1819 -65.1791 -65.1780 -65.1771 -65.1763 -65.1762 -65.1740
   -65.1731 -65.1707 -65.1703 -65.1700 -65.1694 -65.1684 -65.1676 -65.1673
   -65.1662 -65.1655 -65.1635 -65.1625 -65.1600 -65.1578 -65.1575 -65.1565
   -65.1546 -65.1541 -65.1536 -65.1527 -65.1525 -65.1505 -65.1496 -65.1491
   -65.1488 -65.1478 -65.1470 -65.1467 -65.1449 -65.1438 -65.1434 -65.1428
   -65.1425 -65.1424 -65.1421 -65.1411 -65.1406 -65.1400 -65.1394 -65.1390
   -65.1383 -65.1375 -65.1368 -65.1366 -65.1365 -65.1358 -65.1346 -65.1339
   -65.1336 -65.1330 -65.1325 -65.1323 -65.1320 -65.1315 -65.1308 -65.1306
   -65.1305 -65.1299 -65.1293 -65.1287 -65.1284 -65.1274 -65.1273 -65.1268
   -65.1259 -65.1258 -65.1255 -65.1251 -65.1247 -65.1246 -65.1245 -65.1241
   -65.1228 -65.1218 -65.1216 -65.1202 -65.1195 -65.1191 -65.1187 -65.1185
   -65.1180 -65.1176 -65.1158 -65.1151 -65.1146 -65.1139 -65.1105 -65.1087
   -65.1083 -65.1046 -65.0076 -65.0060 -65.0040 -64.9932 -64.9880 -64.9853
   -64.9752 -64.9740 -64.9699 -64.9641 -64.9603 -64.9562 -64.9548 -64.9531
   -64.9524 -64.9521 -64.9494 -64.9482 -64.9450 -64.9428 -64.9401 -64.9390
   -64.9387 -64.9363 -64.9348 -64.9324 -64.9323 -64.9194 -64.9174 -64.9165
   -64.9164 -64.9131 -64.9109 -64.9108 -64.9107 -64.9106 -64.9100 -64.9097
   -64.9033 -64.8987 -64.8986 -64.8980 -64.8957 -64.8956 -64.8946 -64.8552
   -64.8539 -64.8535 -64.8513 -64.8507 -64.8502 -64.8500 -64.8495 -64.8493
   -12.9703 -10.2200 -10.2172  -6.6106  -6.6029  -4.6249  -3.3782  -3.0108
    -2.7800  -2.7084  -2.5731  -2.5719  -2.1302  -2.0887  -2.0063  -1.9890
    -1.8662  -1.2375  -1.1450  -0.9848  -0.6869  -0.5608  -0.5592  -0.2192
    -0.2125  -0.1986  -0.1479  -0.1354  -0.1192   0.0306   0.0308   0.0415
     0.2005   0.2040   0.2253   0.2257   0.2414   0.2916   0.3018   0.3023
     0.3207   0.4196   0.4216   0.4234   0.4242   0.4878   0.4999   0.5591
     0.5634   0.5737   0.5851   0.6149   0.6151   0.6166   0.6341   0.6360
     0.6908   0.6934   0.7283   0.7300   0.7587   0.7588   0.7881   0.7942
     0.7963   0.8550   0.8562   0.8870   0.9069   0.9242   0.9250   0.9899
     0.9996   1.0493   1.0684   1.0702   1.0905   1.0929   1.1530   1.1593
     1.1646   1.1810   1.1817   1.1885   1.2320   1.2557   1.2584   1.2999
     1.3027   1.3169   1.3257   1.3285   1.3337   1.3521   1.3529   1.3962
     1.4057   1.4109   1.4144   1.4188   1.4280   1.4451   1.4495   1.4514
     1.4587   1.4752   1.4820   1.5015   1.5080   1.5129   1.5282   1.5608
     1.5691   1.5761   1.6044   1.6088   1.6095   1.6222   1.6362   1.6436
     1.6577   1.6678   1.6881   1.7008   1.7016   1.7095   1.7207   1.7217
     1.7387   1.7540   1.7586   1.7628   1.7633   1.7987   1.8051   1.8089
     1.8093   1.8169   1.8269   1.8363   1.8388   1.8544   1.8561   1.8672
     1.8698   1.8915   1.9019   1.9183   1.9218   1.9341   1.9400   1.9460
     1.9469   1.9553   1.9593   1.9673   1.9680   1.9697   1.9807   1.9818
     1.9901   2.0010   2.0076   2.0135   2.0342   2.0384   2.0487   2.0536
     2.0687   2.0701   2.0718   2.0740   2.0756   2.0793   2.0814   2.0866
     2.0869   2.0972   2.1509   2.1520   2.2106   2.2142   2.2154   2.2201
     2.2240   2.2282   2.2463   2.2478   2.2716   2.2798   2.2841   2.2955
     2.3128   2.3150   2.3519   2.3529   2.3568   2.3852   2.3860   2.3871
     2.3880   2.3887   2.3917   2.3939   2.3972   2.4069   2.4245   2.4268
     2.4635   2.4665   2.4746   2.4749   2.4817   2.4883   2.4976   2.5189
     2.5243   2.5293   2.5405   2.5576   2.5615   2.5799   2.5911   2.5919
     2.6034   2.6078   2.6337   2.6397   2.6454   2.6555   2.6767   2.6805
     2.6982   2.7024   2.7033   2.7214   2.7264   2.7431   2.7486   2.7512
     2.7529   2.7583   2.7620   2.7653   2.7722   2.7795   2.7945   2.8125
     2.8393   2.8411   2.8420   2.8534   2.8921   2.8936   2.9070   2.9146
     2.9381   2.9505   2.9537   2.9597   2.9612   2.9654   2.9728   3.0031
     3.0064   3.0067   3.0124   3.0150   3.0232   3.0264   3.0286   3.0298
     3.0351   3.0365   3.0382   3.0398   3.0438   3.0554   3.0580   3.0694
     3.0709   3.0820   3.0825   3.0903   3.0961   3.1094   3.1158   3.1232
     3.1244   3.1407   3.1620   3.1645   3.1826   3.2026   3.2039   3.3658
     3.3829   3.4713   3.4717   3.5682   3.5705   3.6958   3.8914   3.9010
     4.2828   4.3178   4.3784   4.3805   4.3964   4.6540   4.7501   4.7763
     4.7852   4.7858   4.9596   5.2227   5.2517   5.2554   5.7072   5.7355
     5.7734   5.8906   5.9818   5.9967   6.0019   6.1401   6.1538   6.2170
     6.3063   6.6462   6.7096   6.7327   6.8960   6.9766   7.0627   7.0708
     7.1217   7.1830   7.2260   7.4545   7.6723   7.7374   7.9764   8.0081
     8.4574   8.5604   8.5649   8.6677   8.7523   8.9212   9.1601   9.1752
     9.2433   9.3416   9.3763   9.5072   9.5392   9.6190   9.7283   9.7619
     9.8175   9.9932  10.0351  10.1328  10.1917  10.3880  10.4205  10.4879
    10.5362  10.6425  10.7923  10.8821  10.9340  11.0097  11.1026  11.2046
    11.2105  11.2695  11.4513  11.5460  11.5580  11.6217  11.6292  11.7221
    11.7715  11.8717  11.9093  11.9482  11.9764  12.0873  12.1255  12.1989
    12.3070  12.3945  12.4742  12.4876  12.5755  12.6106  12.6450  12.6925
    12.7246  12.8034  12.8274  12.8691  12.9536  13.0773  13.1592  13.1799
    13.3192  13.3400  13.3883  13.4369  13.5041  13.5639  13.6029  13.6636
    13.7138  13.7317

          k =-0.5000-0.5774 0.0000 ( 61343 PWs)   bands (ev):

  -107.7492-107.7430-107.7411-107.7405-107.7379-107.7375-107.7370-107.7364
  -107.7363-107.7359-107.7352-107.7349-107.7346-107.7340-107.7338-107.7334
  -107.7330-107.7325-107.7314-107.7308-107.7294-107.7277-107.7276-107.7265
  -107.7247-107.7245-107.7236-107.7216-107.7207-107.7194-107.7193-107.7183
  -107.7180-107.7174-107.7172-107.7143-107.5507-107.5481-107.5480-107.5335
  -107.5309-107.5308-107.5199-107.5174-107.5173-107.4833-107.4819-107.4816
  -107.4791-107.4786-107.4780-107.4778-107.4773-107.4771 -65.1961 -65.1921
   -65.1902 -65.1899 -65.1888 -65.1886 -65.1877 -65.1864 -65.1852 -65.1832
   -65.1828 -65.1819 -65.1791 -65.1780 -65.1771 -65.1763 -65.1762 -65.1740
   -65.1731 -65.1707 -65.1703 -65.1700 -65.1694 -65.1684 -65.1676 -65.1673
   -65.1662 -65.1655 -65.1635 -65.1625 -65.1600 -65.1578 -65.1575 -65.1565
   -65.1546 -65.1541 -65.1536 -65.1527 -65.1525 -65.1505 -65.1496 -65.1491
   -65.1488 -65.1478 -65.1470 -65.1467 -65.1449 -65.1438 -65.1434 -65.1428
   -65.1425 -65.1424 -65.1421 -65.1411 -65.1406 -65.1400 -65.1394 -65.1390
   -65.1383 -65.1375 -65.1368 -65.1366 -65.1365 -65.1358 -65.1346 -65.1339
   -65.1336 -65.1330 -65.1325 -65.1323 -65.1320 -65.1315 -65.1308 -65.1306
   -65.1305 -65.1299 -65.1293 -65.1287 -65.1284 -65.1274 -65.1273 -65.1268
   -65.1259 -65.1258 -65.1255 -65.1251 -65.1247 -65.1246 -65.1245 -65.1241
   -65.1228 -65.1218 -65.1216 -65.1202 -65.1195 -65.1191 -65.1187 -65.1185
   -65.1180 -65.1176 -65.1158 -65.1151 -65.1146 -65.1139 -65.1105 -65.1087
   -65.1083 -65.1046 -65.0076 -65.0060 -65.0040 -64.9932 -64.9880 -64.9853
   -64.9752 -64.9740 -64.9699 -64.9641 -64.9603 -64.9562 -64.9548 -64.9531
   -64.9524 -64.9521 -64.9494 -64.9482 -64.9450 -64.9428 -64.9401 -64.9390
   -64.9387 -64.9363 -64.9348 -64.9324 -64.9323 -64.9194 -64.9174 -64.9165
   -64.9164 -64.9131 -64.9109 -64.9108 -64.9108 -64.9106 -64.9100 -64.9097
   -64.9033 -64.8987 -64.8986 -64.8980 -64.8957 -64.8956 -64.8946 -64.8552
   -64.8539 -64.8535 -64.8513 -64.8507 -64.8502 -64.8500 -64.8495 -64.8493
   -12.9703 -10.2198 -10.2174  -6.6109  -6.6025  -4.6249  -3.3782  -3.0108
    -2.7800  -2.7084  -2.5731  -2.5719  -2.1302  -2.0887  -2.0063  -1.9890
    -1.8662  -1.2375  -1.1450  -0.9848  -0.6869  -0.5608  -0.5592  -0.2192
    -0.2125  -0.1986  -0.1479  -0.1353  -0.1194   0.0306   0.0308   0.0415
     0.2005   0.2040   0.2253   0.2257   0.2414   0.2916   0.3018   0.3023
     0.3207   0.4196   0.4216   0.4234   0.4242   0.4878   0.4999   0.5591
     0.5634   0.5737   0.5851   0.6149   0.6151   0.6166   0.6341   0.6360
     0.6908   0.6934   0.7283   0.7300   0.7587   0.7588   0.7881   0.7942
     0.7963   0.8550   0.8562   0.8870   0.9069   0.9242   0.9250   0.9899
     0.9996   1.0493   1.0685   1.0702   1.0905   1.0929   1.1530   1.1593
     1.1646   1.1810   1.1817   1.1885   1.2320   1.2557   1.2584   1.2999
     1.3027   1.3169   1.3257   1.3285   1.3337   1.3521   1.3529   1.3962
     1.4057   1.4109   1.4144   1.4188   1.4280   1.4451   1.4495   1.4514
     1.4587   1.4752   1.4820   1.5015   1.5080   1.5129   1.5282   1.5608
     1.5691   1.5761   1.6044   1.6088   1.6095   1.6222   1.6362   1.6436
     1.6577   1.6678   1.6881   1.7008   1.7016   1.7095   1.7207   1.7217
     1.7387   1.7541   1.7586   1.7628   1.7633   1.7987   1.8051   1.8089
     1.8093   1.8169   1.8269   1.8363   1.8388   1.8544   1.8561   1.8672
     1.8698   1.8915   1.9019   1.9183   1.9218   1.9341   1.9400   1.9460
     1.9469   1.9553   1.9594   1.9673   1.9680   1.9697   1.9807   1.9818
     1.9901   2.0010   2.0076   2.0135   2.0343   2.0384   2.0487   2.0536
     2.0687   2.0701   2.0718   2.0740   2.0756   2.0793   2.0814   2.0866
     2.0869   2.0972   2.1509   2.1520   2.2106   2.2142   2.2154   2.2201
     2.2240   2.2282   2.2463   2.2478   2.2716   2.2798   2.2841   2.2955
     2.3128   2.3150   2.3519   2.3529   2.3568   2.3852   2.3860   2.3871
     2.3880   2.3887   2.3917   2.3939   2.3972   2.4069   2.4245   2.4268
     2.4635   2.4665   2.4746   2.4749   2.4817   2.4883   2.4976   2.5189
     2.5243   2.5293   2.5405   2.5576   2.5615   2.5799   2.5911   2.5919
     2.6034   2.6078   2.6337   2.6397   2.6454   2.6555   2.6767   2.6805
     2.6982   2.7024   2.7033   2.7214   2.7264   2.7431   2.7486   2.7512
     2.7529   2.7583   2.7620   2.7653   2.7722   2.7795   2.7945   2.8125
     2.8393   2.8411   2.8420   2.8534   2.8921   2.8936   2.9070   2.9146
     2.9381   2.9505   2.9537   2.9597   2.9612   2.9654   2.9728   3.0031
     3.0064   3.0067   3.0124   3.0150   3.0232   3.0264   3.0286   3.0298
     3.0351   3.0365   3.0382   3.0398   3.0438   3.0554   3.0580   3.0694
     3.0709   3.0820   3.0825   3.0903   3.0961   3.1094   3.1158   3.1232
     3.1244   3.1407   3.1620   3.1645   3.1826   3.2026   3.2039   3.3658
     3.3829   3.4713   3.4718   3.5682   3.5705   3.6958   3.8914   3.9010
     4.2828   4.3179   4.3784   4.3805   4.3964   4.6540   4.7501   4.7763
     4.7852   4.7858   4.9596   5.2227   5.2517   5.2554   5.7072   5.7354
     5.7734   5.8905   5.9818   5.9967   6.0019   6.1401   6.1538   6.2170
     6.3063   6.6462   6.7095   6.7327   6.8960   6.9766   7.0628   7.0708
     7.1217   7.1829   7.2260   7.4545   7.6723   7.7373   7.9764   8.0081
     8.4573   8.5604   8.5649   8.6677   8.7523   8.9212   9.1600   9.1752
     9.2433   9.3415   9.3762   9.5072   9.5392   9.6190   9.7283   9.7619
     9.8175   9.9932  10.0350  10.1328  10.1917  10.3880  10.4205  10.4879
    10.5362  10.6425  10.7923  10.8821  10.9340  11.0097  11.1026  11.2046
    11.2105  11.2695  11.4514  11.5460  11.5580  11.6217  11.6292  11.7221
    11.7715  11.8717  11.9093  11.9482  11.9764  12.0873  12.1255  12.1989
    12.3071  12.3945  12.4742  12.4876  12.5755  12.6106  12.6450  12.6925
    12.7246  12.8033  12.8273  12.8691  12.9536  13.0773  13.1591  13.1799
    13.3192  13.3400  13.3883  13.4370  13.5041  13.5639  13.6029  13.6636
    13.7138  13.7317

     the Fermi energy is     4.7011 ev

!    total energy              =  -21903.75863369 Ry
     Harris-Foulkes estimate   =  -21903.75863368 Ry
     estimated scf accuracy    <          6.7E-10 Ry

     The total energy is the sum of the following terms:

     one-electron contribution = -208491.18323222 Ry
     hartree contribution      =  104451.30271729 Ry
     xc contribution           =   -2143.25443899 Ry
     ewald contribution        =   84279.42926330 Ry
     smearing contrib. (-TS)   =      -0.05294306 Ry

     convergence has been achieved in  42 iterations
 
     init_run     :     92.20s CPU     94.42s WALL (       1 calls)
     electrons    :  19183.69s CPU  19494.57s WALL (       1 calls)

     Called by init_run:
     wfcinit      :     80.64s CPU     82.21s WALL (       1 calls)
     potinit      :      7.94s CPU      8.14s WALL (       1 calls)
     hinit0       :      1.83s CPU      1.85s WALL (       1 calls)

     Called by electrons:
     c_bands      :  17572.03s CPU  17818.83s WALL (      42 calls)
     sum_band     :   1249.09s CPU   1286.14s WALL (      42 calls)
     v_of_rho     :    293.19s CPU    301.90s WALL (      43 calls)
     newd         :     61.06s CPU     79.72s WALL (      43 calls)
     mix_rho      :     10.10s CPU     10.20s WALL (      42 calls)

     Called by c_bands:
     init_us_2    :     15.39s CPU     15.48s WALL (     850 calls)
     cegterg      :  17444.52s CPU  17686.66s WALL (     420 calls)

     Called by sum_band:
     sum_band:bec :      3.13s CPU      3.14s WALL (     420 calls)
     addusdens    :     36.28s CPU     58.66s WALL (      42 calls)

     Called by *egterg:
     h_psi        :   5873.99s CPU   5955.77s WALL (    1954 calls)
     s_psi        :    400.10s CPU    400.36s WALL (    1954 calls)
     g_psi        :      6.13s CPU      6.14s WALL (    1524 calls)
     cdiaghg      :   8849.30s CPU   8914.40s WALL (    1944 calls)

     Called by h_psi:
     h_psi:pot    :   5864.17s CPU   5927.87s WALL (    1954 calls)
     h_psi:calbec :    503.26s CPU    504.44s WALL (    1954 calls)
     vloc_psi     :   4959.64s CPU   5021.13s WALL (    1954 calls)
     add_vuspsi   :    401.24s CPU    402.28s WALL (    1954 calls)

     General routines
     calbec       :    681.25s CPU    682.70s WALL (    2374 calls)
     fft          :    286.15s CPU    287.79s WALL (    2708 calls)
     ffts         :      6.84s CPU      6.86s WALL (      85 calls)
     fftw         :   5719.14s CPU   5788.97s WALL ( 1638466 calls)
     interpolate  :      5.30s CPU      5.33s WALL (      43 calls)
 
     Parallel routines
     fft_scatt_xy :    235.25s CPU    237.82s WALL ( 1641259 calls)
     fft_scatt_yz :   4835.80s CPU   4891.68s WALL ( 1641259 calls)
 
     PWSCF        :     5h21m CPU       21h 5m WALL

      26h
 
   This run was terminated on:  12: 5:59  22Nov2019            

=------------------------------------------------------------------------------=
   JOB DONE.
=------------------------------------------------------------------------------=
