
     Program PWSCF v.6.3MaX starts on 16Nov2019 at  3:45:48 

     This program is part of the open-source Quantum ESPRESSO suite
     for quantum simulation of materials; please cite
         "P. Giannozzi et al., J. Phys.:Condens. Matter 21 395502 (2009);
         "P. Giannozzi et al., J. Phys.:Condens. Matter 29 465901 (2017);
          URL http://www.quantum-espresso.org", 
     in publications or presentations arising from this work. More details at
     http://www.quantum-espresso.org/quote

     Parallel version (MPI), running on    16 processors

     MPI processes distributed on     2 nodes
     R & G space division:  proc/nbgrp/npool/nimage =      16
     Waiting for input...
     Reading input from standard input

     Current dimensions of program PWSCF are:
     Max number of different atomic species (ntypx) = 10
     Max number of k-points (npk) =  40000
     Max angular momentum in pseudopotentials (lmaxx) =  3
     Message from routine iosys:
     minimal I/O required, wf_collect reset to FALSE

     IMPORTANT: XC functional enforced from input :
     Exchange-correlation      = VDW-DF ( 1  4  4  0 1 0)
     Any further DFT definition will be discarded
     Please, verify this is what you really want


     Subspace diagonalization in iterative solution of the eigenvalue problem:
     one sub-group per band group will be used
     scalapack distributed-memory algorithm (size of sub-group:  2*  2 procs)

 
     Parallelization info
     --------------------
     sticks:   dense  smooth     PW     G-vecs:    dense   smooth      PW
     Min         565     189     51               159513    30701    4383
     Max         566     190     52               159526    30710    4400
     Sum        9055    3037    823              2552337   491295   70261
 


     bravais-lattice index     =            0
     lattice parameter (alat)  =      14.8058  a.u.
     unit-cell volume          =   10282.4791 (a.u.)^3
     number of atoms/cell      =           66
     number of atomic types    =            3
     number of electrons       =      1056.00
     number of Kohn-Sham states=          634
     kinetic-energy cutoff     =      50.0000  Ry
     charge density cutoff     =     600.0000  Ry
     convergence threshold     =      1.0E-08
     mixing beta               =       0.3000
     number of iterations used =            8  plain     mixing
     Exchange-correlation      = VDW-DF ( 1  4  4  0 1 0)

     celldm(1)=  14.805786  celldm(2)=   0.000000  celldm(3)=   0.000000
     celldm(4)=   0.000000  celldm(5)=   0.000000  celldm(6)=   0.000000

     crystal axes: (cart. coord. in units of alat)
               a(1) = (   1.000000   0.000000   0.000000 )  
               a(2) = (   0.500000   0.866025   0.000000 )  
               a(3) = (   0.000000   0.000000   3.658245 )  

     reciprocal axes: (cart. coord. in units 2 pi/alat)
               b(1) = (  1.000000 -0.577350  0.000000 )  
               b(2) = (  0.000000  1.154701  0.000000 )  
               b(3) = (  0.000000  0.000000  0.273355 )  


     PseudoPot. # 1 for Cu read from file:
     /deac/thonhauserGrp/chakrad/calculations/atomandmolecule-qe6.2.1-i2012-C6modif/all_pbe_UPF_v1.5/cu_pbe_v1.2.uspp.F.UPF
     MD5 check sum: 6e991ff952a84172a2a52a1c1e996048
     Pseudo is Ultrasoft + core correction, Zval = 19.0
     Generated by new atomic code, or converted to UPF format
     Using radial grid of  867 points,  6 beta functions with: 
                l(1) =   0
                l(2) =   0
                l(3) =   1
                l(4) =   1
                l(5) =   2
                l(6) =   2
     Q(r) pseudized with  8 coefficients,  rinner =    1.150   1.150   1.150
                                                       1.150   1.150

     PseudoPot. # 2 for C  read from file:
     /deac/thonhauserGrp/chakrad/calculations/atomandmolecule-qe6.2.1-i2012-C6modif/all_pbe_UPF_v1.5/c_pbe_v1.2.uspp.F.UPF
     MD5 check sum: d1aef80898a10debaa0f26306b886e00
     Pseudo is Ultrasoft + core correction, Zval =  4.0
     Generated by new atomic code, or converted to UPF format
     Using radial grid of  721 points,  4 beta functions with: 
                l(1) =   0
                l(2) =   0
                l(3) =   1
                l(4) =   1
     Q(r) pseudized with  8 coefficients,  rinner =    1.100   1.100   1.100


     PseudoPot. # 3 for H  read from file:
     /deac/thonhauserGrp/chakrad/calculations/atomandmolecule-qe6.2.1-i2012-C6modif/all_pbe_UPF_v1.5/h_pbe_v1.4.uspp.F.UPF
     MD5 check sum: 761ae9a214b05c3daf00ab9f6b793d6f
     Pseudo is Ultrasoft, Zval =  1.0
     Generated by new atomic code, or converted to UPF format
     Using radial grid of  615 points,  2 beta functions with: 
                l(1) =   0
                l(2) =   0
     Q(r) pseudized with  8 coefficients,  rinner =    0.700

     vdW kernel table read from file vdW_kernel_table
     MD5 check sum: cc9485f6209b1096fbef62427c856dab

     atomic species   valence    mass     pseudopotential
        Cu            19.00     1.00000     Cu( 1.00)
        C              4.00     1.00000     C ( 1.00)
        H              1.00     1.00000     H ( 1.00)

     No symmetry found



   Cartesian axes

     site n.     atom                  positions (alat units)
         1           Cu  tau(   1) = (   0.1666667   0.0962250   0.2552686  )
         2           Cu  tau(   2) = (   0.5000000   0.0962250   0.2552686  )
         3           Cu  tau(   3) = (   0.8333333   0.0962250   0.2552686  )
         4           Cu  tau(   4) = (   0.3333333   0.3849002   0.2552686  )
         5           Cu  tau(   5) = (   0.6666667   0.3849002   0.2552686  )
         6           Cu  tau(   6) = (   1.0000000   0.3849002   0.2552686  )
         7           Cu  tau(   7) = (   0.5000000   0.6735753   0.2552686  )
         8           Cu  tau(   8) = (   0.8333333   0.6735753   0.2552686  )
         9           Cu  tau(   9) = (   1.1666667   0.6735753   0.2552686  )
        10           Cu  tau(  10) = (   0.0000000   0.1924501   0.5274341  )
        11           Cu  tau(  11) = (   0.3333333   0.1924501   0.5274341  )
        12           Cu  tau(  12) = (   0.6666667   0.1924501   0.5274341  )
        13           Cu  tau(  13) = (   0.1666667   0.4811252   0.5274341  )
        14           Cu  tau(  14) = (   0.5000000   0.4811252   0.5274341  )
        15           Cu  tau(  15) = (   0.8333333   0.4811252   0.5274341  )
        16           Cu  tau(  16) = (   0.3333333   0.7698004   0.5274341  )
        17           Cu  tau(  17) = (   0.6666667   0.7698004   0.5274341  )
        18           Cu  tau(  18) = (   1.0000000   0.7698004   0.5274341  )
        19           Cu  tau(  19) = (   0.0000000   0.0000000   0.7995997  )
        20           Cu  tau(  20) = (   0.3333333   0.0000000   0.7995997  )
        21           Cu  tau(  21) = (   0.6666667   0.0000000   0.7995997  )
        22           Cu  tau(  22) = (   0.1666667   0.2886751   0.7995997  )
        23           Cu  tau(  23) = (   0.5000000   0.2886751   0.7995997  )
        24           Cu  tau(  24) = (   0.8333333   0.2886751   0.7995997  )
        25           Cu  tau(  25) = (   0.3333333   0.5773503   0.7995997  )
        26           Cu  tau(  26) = (   0.6666667   0.5773503   0.7995997  )
        27           Cu  tau(  27) = (   1.0000000   0.5773503   0.7995997  )
        28           Cu  tau(  28) = (   0.1666659   0.0962246   1.0691130  )
        29           Cu  tau(  29) = (   0.5000000   0.0962241   1.0691104  )
        30           Cu  tau(  30) = (   0.8333341   0.0962246   1.0691130  )
        31           Cu  tau(  31) = (   0.3333325   0.3849006   1.0691104  )
        32           Cu  tau(  32) = (   0.6666675   0.3849006   1.0691104  )
        33           Cu  tau(  33) = (   1.0000000   0.3849003   1.0691143  )
        34           Cu  tau(  34) = (   0.5000000   0.6735762   1.0691130  )
        35           Cu  tau(  35) = (   0.8333334   0.6735753   1.0691143  )
        36           Cu  tau(  36) = (   1.1666666   0.6735753   1.0691143  )
        37           Cu  tau(  37) = (   0.0000000   0.1924486   1.3387540  )
        38           Cu  tau(  38) = (   0.3333330   0.1924499   1.3387465  )
        39           Cu  tau(  39) = (   0.6666670   0.1924499   1.3387465  )
        40           Cu  tau(  40) = (   0.1666676   0.4811247   1.3387504  )
        41           Cu  tau(  41) = (   0.5000000   0.4811256   1.3387465  )
        42           Cu  tau(  42) = (   0.8333324   0.4811247   1.3387504  )
        43           Cu  tau(  43) = (   0.3333346   0.7698011   1.3387540  )
        44           Cu  tau(  44) = (   0.6666654   0.7698011   1.3387540  )
        45           Cu  tau(  45) = (   1.0000000   0.7698014   1.3387504  )
        46           Cu  tau(  46) = (   0.0000000   0.0000000   1.6083750  )
        47           Cu  tau(  47) = (   0.3333333   0.0000005   1.6083624  )
        48           Cu  tau(  48) = (   0.6666667   0.0000005   1.6083624  )
        49           Cu  tau(  49) = (   0.1666671   0.2886748   1.6083624  )
        50           Cu  tau(  50) = (   0.5000000   0.2886751   1.6083553  )
        51           Cu  tau(  51) = (   0.8333329   0.2886748   1.6083624  )
        52           Cu  tau(  52) = (   0.3333338   0.5773500   1.6083624  )
        53           Cu  tau(  53) = (   0.6666662   0.5773500   1.6083624  )
        54           Cu  tau(  54) = (   1.0000000   0.5773503   1.6083570  )
        55           C   tau(  55) = (   0.6567407   0.3959883   2.0869465  )
        56           C   tau(  56) = (   0.5046394   0.3028152   2.0869465  )
        57           C   tau(  57) = (   0.3478975   0.3879497   2.0869465  )
        58           C   tau(  58) = (   0.3432593   0.5662630   2.0869465  )
        59           C   tau(  59) = (   0.4953606   0.6594361   2.0869465  )
        60           C   tau(  60) = (   0.6521025   0.5743016   2.0869465  )
        61           H   tau(  61) = (   0.7789959   0.3295665   2.0870248  )
        62           H   tau(  62) = (   0.5082587   0.1637263   2.0870248  )
        63           H   tau(  63) = (   0.2292624   0.3152577   2.0870248  )
        64           H   tau(  64) = (   0.2210041   0.6326847   2.0870248  )
        65           H   tau(  65) = (   0.4917413   0.7985249   2.0870248  )
        66           H   tau(  66) = (   0.7707376   0.6469936   2.0870248  )

     number of k points=    10  gaussian smearing, width (Ry)=  0.0200
                       cart. coord. in units 2pi/alat
        k(    1) = (   0.0000000   0.0000000   0.0000000), wk =   0.1250000
        k(    2) = (   0.0000000   0.2886751   0.0000000), wk =   0.2500000
        k(    3) = (   0.0000000  -0.5773503   0.0000000), wk =   0.1250000
        k(    4) = (   0.2500000  -0.7216878   0.0000000), wk =   0.2500000
        k(    5) = (  -0.2500000   0.1443376   0.0000000), wk =   0.2500000
        k(    6) = (   0.2500000   0.1443376   0.0000000), wk =   0.2500000
        k(    7) = (   0.5000000  -0.2886751   0.0000000), wk =   0.1250000
        k(    8) = (  -0.5000000  -0.2886751   0.0000000), wk =   0.1250000
        k(    9) = (  -0.2500000  -0.7216878   0.0000000), wk =   0.2500000
        k(   10) = (  -0.5000000  -0.5773503   0.0000000), wk =   0.2500000

     Dense  grid:  2552337 G-vectors     FFT dimensions: ( 120, 120, 432)

     Smooth grid:   491295 G-vectors     FFT dimensions: (  72,  72, 243)

     Estimated max dynamical RAM per process >       1.14 GB

     Estimated total dynamical RAM >      18.26 GB

     Initial potential from superposition of free atoms
     Check: negative starting charge=   -0.000713

     starting charge 1001.99960, renormalised to 1056.00000

     negative rho (up, down):  7.511E-04 0.000E+00


     %%%%%%%%%%%%%%%%%%%%%%%%%%%%%%%%%%%%%%%%%%%%%%%%%%%%%%%%%%%%%%%%%%%%%%%%
     %                                                                      %
     % You are using vdW-DF, which was implemented by the Thonhauser group. %
     % Please cite the following two papers that made this development      %
     % possible and the two reviews that describe the various versions:     %
     %                                                                      %
     %   T. Thonhauser et al., PRL 115, 136402 (2015).                      %
     %   T. Thonhauser et al., PRB 76, 125112 (2007).                       %
     %   K. Berland et al., Rep. Prog. Phys. 78, 066501 (2015).             %
     %   D.C. Langreth et al., J. Phys.: Condens. Matter 21, 084203 (2009). %
     %                                                                      %
     %                                                                      %
     % If you are calculating the stress with vdW-DF, please also cite:     %
     %                                                                      %
     %   R. Sabatini et al., J. Phys.: Condens. Matter 24, 424209 (2012).   %
     %                                                                      %
     %%%%%%%%%%%%%%%%%%%%%%%%%%%%%%%%%%%%%%%%%%%%%%%%%%%%%%%%%%%%%%%%%%%%%%%%


     Starting wfcs are  732 randomized atomic wfcs

     total cpu time spent up to now is      185.7 secs

     Self-consistent Calculation

     iteration #  1     ecut=    50.00 Ry     beta= 0.30
     Davidson diagonalization with overlap
     ethr =  1.00E-02,  avg # of iterations =  5.7

     negative rho (up, down):  4.607E-04 0.000E+00

     total cpu time spent up to now is     2190.0 secs

     total energy              =  -19072.36603277 Ry
     Harris-Foulkes estimate   =  -22004.36357025 Ry
     estimated scf accuracy    <    5796.20146519 Ry

     iteration #  2     ecut=    50.00 Ry     beta= 0.30
     Davidson diagonalization with overlap
     ethr =  1.00E-02,  avg # of iterations = 19.8

     negative rho (up, down):  4.979E-04 0.000E+00

     total cpu time spent up to now is     6936.1 secs

     total energy              =  -19237.06041654 Ry
     Harris-Foulkes estimate   =  -38624.68896221 Ry
     estimated scf accuracy    <  282736.54020010 Ry

     iteration #  3     ecut=    50.00 Ry     beta= 0.30
     Davidson diagonalization with overlap
     ethr =  1.00E-02,  avg # of iterations =  7.0

     negative rho (up, down):  5.742E-04 0.000E+00

     total cpu time spent up to now is     9111.2 secs

     total energy              =  -21714.91488599 Ry
     Harris-Foulkes estimate   =  -23325.30962826 Ry
     estimated scf accuracy    <   43501.17597630 Ry

     iteration #  4     ecut=    50.00 Ry     beta= 0.30
     Davidson diagonalization with overlap
     ethr =  1.00E-02,  avg # of iterations =  7.8

     negative rho (up, down):  7.540E-04 0.000E+00

     total cpu time spent up to now is    10686.9 secs

     total energy              =  -21710.26168497 Ry
     Harris-Foulkes estimate   =  -22101.07173425 Ry
     estimated scf accuracy    <   10789.34598711 Ry

     iteration #  5     ecut=    50.00 Ry     beta= 0.30
     Davidson diagonalization with overlap
     ethr =  1.00E-02,  avg # of iterations =  6.0

     negative rho (up, down):  2.080E-04 0.000E+00

     total cpu time spent up to now is    12382.6 secs

     total energy              =  -21706.48758489 Ry
     Harris-Foulkes estimate   =  -22155.74603541 Ry
     estimated scf accuracy    <    8729.62645436 Ry

     iteration #  6     ecut=    50.00 Ry     beta= 0.30
     Davidson diagonalization with overlap
     ethr =  1.00E-02,  avg # of iterations =  5.6

     negative rho (up, down):  2.479E-04 0.000E+00

     total cpu time spent up to now is    13745.8 secs

     total energy              =  -21882.86630654 Ry
     Harris-Foulkes estimate   =  -21978.15743711 Ry
     estimated scf accuracy    <     702.51819169 Ry

     iteration #  7     ecut=    50.00 Ry     beta= 0.30
     Davidson diagonalization with overlap
     ethr =  1.00E-02,  avg # of iterations =  2.7

     negative rho (up, down):  4.126E-04 0.000E+00

     total cpu time spent up to now is    14274.5 secs

     total energy              =  -21907.16733581 Ry
     Harris-Foulkes estimate   =  -21934.86871554 Ry
     estimated scf accuracy    <     313.24472479 Ry

     iteration #  8     ecut=    50.00 Ry     beta= 0.30
     Davidson diagonalization with overlap
     ethr =  1.00E-02,  avg # of iterations =  3.0

     negative rho (up, down):  5.851E-04 0.000E+00

     total cpu time spent up to now is    14782.7 secs

     total energy              =  -21912.73905310 Ry
     Harris-Foulkes estimate   =  -21921.40918195 Ry
     estimated scf accuracy    <     137.98406530 Ry

     iteration #  9     ecut=    50.00 Ry     beta= 0.30
     Davidson diagonalization with overlap
     ethr =  1.00E-02,  avg # of iterations =  1.0

     negative rho (up, down):  6.855E-04 0.000E+00

     total cpu time spent up to now is    15185.2 secs

     total energy              =  -21913.08777120 Ry
     Harris-Foulkes estimate   =  -21914.51215627 Ry
     estimated scf accuracy    <      90.44960850 Ry

     iteration # 10     ecut=    50.00 Ry     beta= 0.30
     Davidson diagonalization with overlap
     ethr =  8.57E-03,  avg # of iterations =  1.0

     negative rho (up, down):  1.197E-02 0.000E+00

     total cpu time spent up to now is    15585.4 secs

     total energy              =  -21893.84476819 Ry
     Harris-Foulkes estimate   =  -21913.31491849 Ry
     estimated scf accuracy    <      92.20003792 Ry

     iteration # 11     ecut=    50.00 Ry     beta= 0.30
     Davidson diagonalization with overlap
     ethr =  8.57E-03,  avg # of iterations =  4.3

     negative rho (up, down):  2.625E-03 0.000E+00

     total cpu time spent up to now is    16238.2 secs

     total energy              =  -21900.01998457 Ry
     Harris-Foulkes estimate   =  -21914.94674551 Ry
     estimated scf accuracy    <     288.57824378 Ry

     iteration # 12     ecut=    50.00 Ry     beta= 0.30
     Davidson diagonalization with overlap
     ethr =  8.57E-03,  avg # of iterations =  1.7

     negative rho (up, down):  2.342E-03 0.000E+00

     total cpu time spent up to now is    16677.5 secs

     total energy              =  -21898.74591770 Ry
     Harris-Foulkes estimate   =  -21906.23310759 Ry
     estimated scf accuracy    <      42.59610206 Ry

     iteration # 13     ecut=    50.00 Ry     beta= 0.30
     Davidson diagonalization with overlap
     ethr =  4.03E-03,  avg # of iterations =  3.3

     negative rho (up, down):  2.102E-03 0.000E+00

     total cpu time spent up to now is    17242.0 secs

     total energy              =  -21903.96611615 Ry
     Harris-Foulkes estimate   =  -21904.69715105 Ry
     estimated scf accuracy    <       6.30975671 Ry

     iteration # 14     ecut=    50.00 Ry     beta= 0.30
     Davidson diagonalization with overlap
     ethr =  5.98E-04,  avg # of iterations =  4.4

     negative rho (up, down):  1.794E-03 0.000E+00

     total cpu time spent up to now is    17809.4 secs

     total energy              =  -21903.88099986 Ry
     Harris-Foulkes estimate   =  -21904.18771708 Ry
     estimated scf accuracy    <       3.21529677 Ry

     iteration # 15     ecut=    50.00 Ry     beta= 0.30
     Davidson diagonalization with overlap
     ethr =  3.04E-04,  avg # of iterations =  4.4

     negative rho (up, down):  1.710E-03 0.000E+00

     total cpu time spent up to now is    18178.8 secs

     total energy              =  -21903.84467415 Ry
     Harris-Foulkes estimate   =  -21903.97291786 Ry
     estimated scf accuracy    <       2.37352583 Ry

     iteration # 16     ecut=    50.00 Ry     beta= 0.30
     Davidson diagonalization with overlap
     ethr =  2.25E-04,  avg # of iterations =  3.5

     negative rho (up, down):  1.632E-03 0.000E+00

     total cpu time spent up to now is    18512.7 secs

     total energy              =  -21903.78947791 Ry
     Harris-Foulkes estimate   =  -21903.88151510 Ry
     estimated scf accuracy    <       1.78469009 Ry

     iteration # 17     ecut=    50.00 Ry     beta= 0.30
     Davidson diagonalization with overlap
     ethr =  1.69E-04,  avg # of iterations =  5.3

     negative rho (up, down):  1.618E-03 0.000E+00

     total cpu time spent up to now is    18906.2 secs

     total energy              =  -21903.78163819 Ry
     Harris-Foulkes estimate   =  -21903.81493714 Ry
     estimated scf accuracy    <       0.90950163 Ry

     iteration # 18     ecut=    50.00 Ry     beta= 0.30
     Davidson diagonalization with overlap
     ethr =  8.61E-05,  avg # of iterations =  4.7

     negative rho (up, down):  1.613E-03 0.000E+00

     total cpu time spent up to now is    19286.0 secs

     total energy              =  -21903.77493848 Ry
     Harris-Foulkes estimate   =  -21903.79145747 Ry
     estimated scf accuracy    <       0.42410855 Ry

     iteration # 19     ecut=    50.00 Ry     beta= 0.30
     Davidson diagonalization with overlap
     ethr =  4.02E-05,  avg # of iterations =  4.2

     negative rho (up, down):  1.623E-03 0.000E+00

     total cpu time spent up to now is    19647.3 secs

     total energy              =  -21903.77474920 Ry
     Harris-Foulkes estimate   =  -21903.78200894 Ry
     estimated scf accuracy    <       0.10824197 Ry

     iteration # 20     ecut=    50.00 Ry     beta= 0.30
     Davidson diagonalization with overlap
     c_bands:  1 eigenvalues not converged
     ethr =  1.03E-05,  avg # of iterations = 10.3

     negative rho (up, down):  1.653E-03 0.000E+00

     total cpu time spent up to now is    20238.5 secs

     total energy              =  -21903.76225992 Ry
     Harris-Foulkes estimate   =  -21903.77701777 Ry
     estimated scf accuracy    <       0.17808724 Ry

     iteration # 21     ecut=    50.00 Ry     beta= 0.30
     Davidson diagonalization with overlap
     ethr =  1.03E-05,  avg # of iterations =  9.4

     negative rho (up, down):  1.701E-03 0.000E+00

     total cpu time spent up to now is    20828.4 secs

     total energy              =  -21903.76784200 Ry
     Harris-Foulkes estimate   =  -21903.76949059 Ry
     estimated scf accuracy    <       0.01544515 Ry

     iteration # 22     ecut=    50.00 Ry     beta= 0.30
     Davidson diagonalization with overlap
     ethr =  1.46E-06,  avg # of iterations =  5.8

     negative rho (up, down):  1.764E-03 0.000E+00

     total cpu time spent up to now is    21251.3 secs

     total energy              =  -21903.76816826 Ry
     Harris-Foulkes estimate   =  -21903.76898923 Ry
     estimated scf accuracy    <       0.00549962 Ry

     iteration # 23     ecut=    50.00 Ry     beta= 0.30
     Davidson diagonalization with overlap
     ethr =  5.21E-07,  avg # of iterations =  3.4

     negative rho (up, down):  1.844E-03 0.000E+00

     total cpu time spent up to now is    21594.6 secs

     total energy              =  -21903.76848832 Ry
     Harris-Foulkes estimate   =  -21903.76865129 Ry
     estimated scf accuracy    <       0.00153629 Ry

     iteration # 24     ecut=    50.00 Ry     beta= 0.30
     Davidson diagonalization with overlap
     ethr =  1.45E-07,  avg # of iterations =  4.2

     negative rho (up, down):  1.950E-03 0.000E+00

     total cpu time spent up to now is    21962.7 secs

     total energy              =  -21903.76865397 Ry
     Harris-Foulkes estimate   =  -21903.76863595 Ry
     estimated scf accuracy    <       0.00041563 Ry

     iteration # 25     ecut=    50.00 Ry     beta= 0.30
     Davidson diagonalization with overlap
     ethr =  3.94E-08,  avg # of iterations =  5.4

     negative rho (up, down):  2.021E-03 0.000E+00

     total cpu time spent up to now is    22378.6 secs

     total energy              =  -21903.76870916 Ry
     Harris-Foulkes estimate   =  -21903.76871457 Ry
     estimated scf accuracy    <       0.00019165 Ry

     iteration # 26     ecut=    50.00 Ry     beta= 0.30
     Davidson diagonalization with overlap
     ethr =  1.81E-08,  avg # of iterations =  3.2

     negative rho (up, down):  2.120E-03 0.000E+00

     total cpu time spent up to now is    22697.3 secs

     total energy              =  -21903.76875079 Ry
     Harris-Foulkes estimate   =  -21903.76873148 Ry
     estimated scf accuracy    <       0.00002075 Ry

     iteration # 27     ecut=    50.00 Ry     beta= 0.30
     Davidson diagonalization with overlap
     ethr =  1.97E-09,  avg # of iterations =  4.4

     negative rho (up, down):  2.168E-03 0.000E+00

     total cpu time spent up to now is    23123.5 secs

     total energy              =  -21903.76875826 Ry
     Harris-Foulkes estimate   =  -21903.76875469 Ry
     estimated scf accuracy    <       0.00000974 Ry

     iteration # 28     ecut=    50.00 Ry     beta= 0.30
     Davidson diagonalization with overlap
     ethr =  9.22E-10,  avg # of iterations =  2.0

     negative rho (up, down):  2.259E-03 0.000E+00

     total cpu time spent up to now is    23409.1 secs

     total energy              =  -21903.76876388 Ry
     Harris-Foulkes estimate   =  -21903.76875978 Ry
     estimated scf accuracy    <       0.00000408 Ry

     iteration # 29     ecut=    50.00 Ry     beta= 0.30
     Davidson diagonalization with overlap
     ethr =  3.86E-10,  avg # of iterations =  3.6

     negative rho (up, down):  2.274E-03 0.000E+00

     total cpu time spent up to now is    23759.2 secs

     total energy              =  -21903.76876456 Ry
     Harris-Foulkes estimate   =  -21903.76876470 Ry
     estimated scf accuracy    <       0.00000589 Ry

     iteration # 30     ecut=    50.00 Ry     beta= 0.30
     Davidson diagonalization with overlap
     ethr =  3.86E-10,  avg # of iterations =  2.0

     negative rho (up, down):  2.304E-03 0.000E+00

     total cpu time spent up to now is    24044.9 secs

     total energy              =  -21903.76876505 Ry
     Harris-Foulkes estimate   =  -21903.76876495 Ry
     estimated scf accuracy    <       0.00000189 Ry

     iteration # 31     ecut=    50.00 Ry     beta= 0.30
     Davidson diagonalization with overlap
     ethr =  1.79E-10,  avg # of iterations =  2.0

     negative rho (up, down):  2.309E-03 0.000E+00

     total cpu time spent up to now is    24331.8 secs

     total energy              =  -21903.76876506 Ry
     Harris-Foulkes estimate   =  -21903.76876527 Ry
     estimated scf accuracy    <       0.00000291 Ry

     iteration # 32     ecut=    50.00 Ry     beta= 0.30
     Davidson diagonalization with overlap
     ethr =  1.79E-10,  avg # of iterations =  1.0

     negative rho (up, down):  2.320E-03 0.000E+00

     total cpu time spent up to now is    24586.5 secs

     total energy              =  -21903.76876513 Ry
     Harris-Foulkes estimate   =  -21903.76876521 Ry
     estimated scf accuracy    <       0.00000086 Ry

     iteration # 33     ecut=    50.00 Ry     beta= 0.30
     Davidson diagonalization with overlap
     ethr =  8.11E-11,  avg # of iterations =  2.0

     negative rho (up, down):  2.325E-03 0.000E+00

     total cpu time spent up to now is    24872.0 secs

     total energy              =  -21903.76876512 Ry
     Harris-Foulkes estimate   =  -21903.76876517 Ry
     estimated scf accuracy    <       0.00000014 Ry

     iteration # 34     ecut=    50.00 Ry     beta= 0.30
     Davidson diagonalization with overlap
     ethr =  1.35E-11,  avg # of iterations =  2.0

     negative rho (up, down):  2.329E-03 0.000E+00

     total cpu time spent up to now is    25158.9 secs

     total energy              =  -21903.76876509 Ry
     Harris-Foulkes estimate   =  -21903.76876514 Ry
     estimated scf accuracy    <       0.00000005 Ry

     iteration # 35     ecut=    50.00 Ry     beta= 0.30
     Davidson diagonalization with overlap
     ethr =  4.73E-12,  avg # of iterations =  2.4

     negative rho (up, down):  2.330E-03 0.000E+00

     total cpu time spent up to now is    25458.5 secs

     total energy              =  -21903.76876508 Ry
     Harris-Foulkes estimate   =  -21903.76876510 Ry
     estimated scf accuracy    <       0.00000002 Ry

     iteration # 36     ecut=    50.00 Ry     beta= 0.30
     Davidson diagonalization with overlap
     ethr =  1.72E-12,  avg # of iterations =  2.0

     negative rho (up, down):  2.332E-03 0.000E+00

     total cpu time spent up to now is    25746.3 secs

     End of self-consistent calculation

          k = 0.0000 0.0000 0.0000 ( 61453 PWs)   bands (ev):

  -107.8774-107.8727-107.8711-107.8709-107.8709-107.8706-107.8706-107.8701
  -107.8687-107.8674-107.8674-107.8673-107.8673-107.8667-107.8667-107.8663
  -107.8660-107.8657-107.8628-107.8615-107.8615-107.8614-107.8608-107.8608
  -107.8606-107.8585-107.8585-107.8567-107.8526-107.8520-107.8520-107.8520
  -107.8520-107.8513-107.8496-107.8493-107.6374-107.6332-107.6332-107.6329
  -107.6315-107.6315-107.6299-107.6278-107.6278-107.6180-107.6129-107.6129
  -107.6129-107.6128-107.6128-107.6128-107.6103-107.6103 -65.3318 -65.3187
   -65.3182 -65.3182 -65.3179 -65.3179 -65.3174 -65.3107 -65.3106 -65.3106
   -65.3102 -65.3102 -65.3099 -65.3099 -65.3097 -65.3065 -65.3065 -65.3064
   -65.3061 -65.3043 -65.2987 -65.2987 -65.2985 -65.2979 -65.2977 -65.2977
   -65.2959 -65.2959 -65.2959 -65.2956 -65.2956 -65.2952 -65.2950 -65.2950
   -65.2925 -65.2925 -65.2921 -65.2920 -65.2865 -65.2865 -65.2864 -65.2860
   -65.2859 -65.2859 -65.2851 -65.2851 -65.2816 -65.2816 -65.2798 -65.2785
   -65.2784 -65.2781 -65.2781 -65.2781 -65.2781 -65.2778 -65.2762 -65.2712
   -65.2712 -65.2701 -65.2701 -65.2701 -65.2698 -65.2698 -65.2697 -65.2681
   -65.2681 -65.2680 -65.2674 -65.2670 -65.2670 -65.2665 -65.2665 -65.2639
   -65.2639 -65.2602 -65.2599 -65.2599 -65.2597 -65.2597 -65.2597 -65.2596
   -65.2596 -65.2591 -65.2591 -65.2588 -65.2588 -65.2563 -65.2535 -65.2535
   -65.2531 -65.2529 -65.2529 -65.2529 -65.2528 -65.2528 -65.2470 -65.2470
   -65.2454 -65.2454 -65.2453 -65.2451 -65.2449 -65.2449 -65.2411 -65.2411
   -65.2344 -65.2344 -65.0902 -65.0898 -65.0898 -65.0887 -65.0887 -65.0883
   -65.0862 -65.0862 -65.0862 -65.0851 -65.0723 -65.0722 -65.0722 -65.0722
   -65.0721 -65.0721 -65.0696 -65.0696 -65.0693 -65.0691 -65.0548 -65.0542
   -65.0542 -65.0531 -65.0531 -65.0527 -65.0414 -65.0414 -65.0369 -65.0369
   -65.0368 -65.0368 -65.0368 -65.0367 -65.0246 -65.0246 -65.0128 -65.0091
   -65.0090 -65.0086 -65.0072 -65.0072 -65.0052 -65.0033 -65.0032 -64.9901
   -64.9853 -64.9853 -64.9853 -64.9852 -64.9852 -64.9852 -64.9828 -64.9828
   -12.5428  -9.8010  -9.8007  -6.2132  -6.2126  -4.2903  -4.1421  -3.5214
    -2.6988  -2.5703  -2.2973  -1.6515  -1.6514  -1.4419  -1.1768  -1.1765
    -1.1765  -1.1764  -1.1764  -1.1763  -0.7733  -0.7719  -0.7719  -0.7719
    -0.7719  -0.7718  -0.5982  -0.3934  -0.2744  -0.2715  -0.2715  -0.2714
    -0.2714  -0.2714  -0.2550   0.1790   0.1790   0.1791   0.1791   0.1795
     0.1817   0.2829   0.2832   0.5289   0.5289   0.5295   0.5298   0.5298
     0.5308   0.6544   0.6544   0.6545   0.6545   0.6545   0.6548   0.7040
     0.7040   0.7041   0.7042   0.7042   0.7046   0.7321   0.7321   0.7460
     0.7460   0.7574   0.7575   0.8532   0.8532   0.8608   0.8608   0.8825
     0.8825   0.8826   0.8828   0.8828   0.8833   0.8910   0.8910   0.8921
     0.8921   0.9429   0.9429   0.9839   0.9839   1.0920   1.0920   1.0957
     1.0957   1.0962   1.0962   1.0962   1.0969   1.1285   1.1285   1.3314
     1.3314   1.3323   1.3326   1.3326   1.3335   1.4615   1.4615   1.4696
     1.4696   1.4842   1.4842   1.4848   1.4848   1.4850   1.4855   1.5233
     1.5292   1.5293   1.5431   1.5976   1.5976   1.5983   1.5983   1.5983
     1.5987   1.6111   1.6112   1.6363   1.6363   1.6680   1.6729   1.6729
     1.6835   1.6835   1.6847   1.6847   1.6848   1.6852   1.7228   1.7228
     1.7357   1.7357   1.7361   1.7361   1.7362   1.7364   1.7552   1.7553
     1.7553   1.7556   1.7557   1.7557   1.7615   1.7615   1.7787   1.8770
     1.8771   1.8827   1.8828   1.8863   1.8864   1.8865   1.8877   1.9002
     1.9002   1.9101   1.9105   1.9294   1.9294   1.9320   1.9321   1.9560
     1.9560   1.9574   1.9574   1.9574   1.9578   1.9579   1.9580   2.1205
     2.1206   2.1513   2.1514   2.1514   2.1536   2.2161   2.2163   2.2163
     2.2165   2.2165   2.2167   2.2414   2.2415   2.2827   2.2827   2.2831
     2.2846   2.2915   2.2915   2.2957   2.2957   2.3176   2.3176   2.3566
     2.3605   2.3606   2.3838   2.3838   2.4133   2.4133   2.4217   2.4217
     2.4218   2.4235   2.4442   2.4442   2.4467   2.4468   2.4468   2.4471
     2.4472   2.4472   2.4509   2.4509   2.4540   2.4540   2.5214   2.5214
     2.5857   2.5857   2.5857   2.5858   2.5859   2.5859   2.6432   2.6437
     2.6437   2.6448   2.6449   2.6449   2.6450   2.6451   2.6451   2.6451
     2.6503   2.6504   2.7097   2.7097   2.7138   2.7138   2.7139   2.7141
     2.7143   2.7143   2.7252   2.7253   2.7253   2.7256   2.7256   2.7256
     2.7498   2.7499   2.7499   2.7501   2.7501   2.7501   2.7824   2.7824
     2.7907   2.7907   2.8205   2.8207   2.8207   2.8211   2.8211   2.8211
     2.8234   2.8235   2.8453   2.8455   2.8455   2.8457   2.8457   2.8458
     2.8742   2.8742   2.8765   2.8765   2.8783   2.8783   2.8972   2.8973
     2.9129   2.9130   2.9130   2.9132   2.9132   2.9133   2.9391   2.9392
     2.9392   2.9402   2.9402   2.9433   2.9602   2.9602   2.9898   2.9899
     2.9899   2.9903   2.9903   2.9903   3.8068   3.9225   3.9225   3.9228
     3.9340   3.9435   3.9435   4.3920   5.3537   5.3538   5.3572   5.3716
     5.3857   5.3857   7.0529   7.0530   7.0625   7.1323   7.1937   7.1937
     7.2633   7.5008   7.5010   7.7827   7.7828   7.7830   7.7830   7.7984
     7.7984   8.1629   8.1767   8.1767   8.1959   8.1959   8.5081   8.5959
     8.5967   8.7780   8.8533   8.8537   8.8615   8.8616   8.9601   8.9601
     8.9886   9.1999   9.4693   9.4693   9.4749   9.4749   9.4945   9.7960
     9.7962   9.8533   9.8534   9.8750  10.5434  10.5586  10.6356  10.6356
    10.6450  10.6450  10.7868  10.7868  10.8345  10.8345  10.8560  11.0534
    11.1745  11.1745  11.2816  11.2816  11.2877  11.2960  11.2960  11.3177
    11.4193  11.6988  11.6988  11.7865  11.7923  11.7923  11.8428  11.8428
    11.8598  11.8598  11.8625  11.9399  11.9400  12.0188  12.0961  12.2096
    12.2096  12.2378  12.3082  12.3082  12.3253  12.4557  12.4557  12.6902
    12.9162  12.9168  12.9170  12.9775  12.9835  12.9835  12.9875  13.0289
    13.0701  13.0856

          k = 0.0000 0.2887 0.0000 ( 61417 PWs)   bands (ev):

  -107.8769-107.8734-107.8721-107.8716-107.8711-107.8699-107.8696-107.8691
  -107.8687-107.8679-107.8678-107.8672-107.8671-107.8669-107.8666-107.8659
  -107.8658-107.8656-107.8629-107.8627-107.8618-107.8616-107.8604-107.8603
  -107.8598-107.8587-107.8587-107.8563-107.8536-107.8526-107.8525-107.8513
  -107.8512-107.8507-107.8498-107.8495-107.6370-107.6342-107.6334-107.6327
  -107.6313-107.6312-107.6297-107.6279-107.6278-107.6175-107.6146-107.6135
  -107.6135-107.6120-107.6120-107.6116-107.6105-107.6105 -65.3304 -65.3212
   -65.3207 -65.3195 -65.3184 -65.3183 -65.3178 -65.3176 -65.3146 -65.3146
   -65.3138 -65.3137 -65.3120 -65.3119 -65.3073 -65.3059 -65.3058 -65.3038
   -65.3033 -65.3022 -65.3020 -65.3020 -65.3018 -65.3016 -65.2995 -65.2995
   -65.2992 -65.2989 -65.2948 -65.2948 -65.2918 -65.2917 -65.2915 -65.2904
   -65.2903 -65.2897 -65.2890 -65.2890 -65.2869 -65.2868 -65.2844 -65.2844
   -65.2811 -65.2809 -65.2807 -65.2804 -65.2796 -65.2795 -65.2787 -65.2777
   -65.2774 -65.2764 -65.2761 -65.2749 -65.2747 -65.2745 -65.2738 -65.2731
   -65.2730 -65.2711 -65.2709 -65.2708 -65.2706 -65.2705 -65.2704 -65.2679
   -65.2678 -65.2657 -65.2656 -65.2650 -65.2649 -65.2634 -65.2633 -65.2630
   -65.2625 -65.2623 -65.2623 -65.2619 -65.2618 -65.2617 -65.2616 -65.2600
   -65.2599 -65.2582 -65.2580 -65.2576 -65.2570 -65.2564 -65.2561 -65.2559
   -65.2558 -65.2553 -65.2545 -65.2524 -65.2523 -65.2507 -65.2491 -65.2490
   -65.2490 -65.2481 -65.2478 -65.2455 -65.2454 -65.2447 -65.2421 -65.2416
   -65.2385 -65.2354 -65.1006 -65.0952 -65.0952 -65.0937 -65.0934 -65.0837
   -65.0819 -65.0818 -65.0781 -65.0780 -65.0770 -65.0769 -65.0762 -65.0761
   -65.0731 -65.0650 -65.0649 -65.0593 -65.0592 -65.0581 -65.0577 -65.0565
   -65.0564 -65.0536 -65.0535 -65.0496 -65.0456 -65.0425 -65.0409 -65.0408
   -65.0398 -65.0368 -65.0367 -65.0328 -65.0289 -65.0257 -65.0124 -65.0098
   -65.0091 -65.0085 -65.0071 -65.0070 -65.0051 -65.0033 -65.0032 -64.9897
   -64.9869 -64.9858 -64.9858 -64.9845 -64.9845 -64.9841 -64.9831 -64.9831
   -12.5420  -9.8045  -9.8015  -6.2159  -6.2085  -4.2641  -3.9286  -3.3123
    -2.6713  -2.3695  -2.3255  -2.3010  -1.7779  -1.6991  -1.6591  -1.6146
    -1.6141  -1.2541  -1.1306  -1.1301  -0.9761  -0.5585  -0.5584  -0.4910
    -0.4668  -0.4521  -0.3473  -0.3374  -0.2721  -0.2716  -0.1370  -0.1039
    -0.0992  -0.0015   0.0030   0.0032   0.1791   0.1799   0.2093   0.2437
     0.2729   0.2751   0.2851   0.4589   0.4638   0.4937   0.4937   0.5200
     0.5297   0.5297   0.5537   0.5538   0.6004   0.6014   0.6030   0.6035
     0.6159   0.6160   0.6560   0.6560   0.6928   0.6928   0.7212   0.7212
     0.7296   0.7721   0.7724   0.7869   0.7869   0.8093   0.8094   0.8221
     0.8221   0.8560   0.8560   0.8967   0.9654   0.9654   0.9718   0.9956
     0.9956   1.0099   1.0101   1.0460   1.0461   1.0805   1.0832   1.0832
     1.1456   1.1456   1.1715   1.1724   1.1930   1.1930   1.2380   1.2382
     1.2550   1.2751   1.2815   1.2818   1.3098   1.3502   1.3503   1.3699
     1.3699   1.3767   1.4134   1.4148   1.4252   1.4499   1.4499   1.4571
     1.4897   1.4899   1.5188   1.5555   1.5680   1.5783   1.5783   1.5912
     1.5913   1.5914   1.6290   1.6303   1.6355   1.6479   1.6480   1.6634
     1.6685   1.6687   1.6854   1.6887   1.6988   1.7064   1.7184   1.7268
     1.7270   1.7365   1.7416   1.7418   1.7436   1.7610   1.7615   1.7648
     1.7649   1.7690   1.7891   1.7919   1.8022   1.8134   1.8147   1.8239
     1.8254   1.8378   1.8384   1.8736   1.8738   1.8838   1.8841   1.8848
     1.8994   1.9083   1.9083   1.9097   1.9165   1.9189   1.9246   1.9398
     1.9740   1.9806   1.9851   1.9872   1.9947   1.9949   2.0061   2.0193
     2.0202   2.0214   2.0254   2.0481   2.0482   2.0619   2.0947   2.0990
     2.1277   2.1286   2.1393   2.1404   2.1463   2.1463   2.2090   2.2249
     2.2452   2.2492   2.2537   2.2575   2.2675   2.2713   2.2732   2.2879
     2.3008   2.3106   2.3140   2.3206   2.3216   2.3275   2.3584   2.3597
     2.3826   2.3895   2.3912   2.3936   2.3998   2.4254   2.4306   2.4310
     2.4361   2.4408   2.4674   2.4791   2.4826   2.4891   2.4894   2.5068
     2.5111   2.5113   2.5278   2.5314   2.5315   2.5324   2.5408   2.5442
     2.5687   2.5787   2.6161   2.6198   2.6256   2.6536   2.6545   2.6626
     2.6657   2.6661   2.6670   2.6701   2.6903   2.6906   2.6932   2.7055
     2.7077   2.7104   2.7136   2.7165   2.7416   2.7590   2.7590   2.7635
     2.7730   2.7732   2.7943   2.7949   2.8011   2.8022   2.8457   2.8464
     2.8465   2.8567   2.8567   2.8594   2.8702   2.8712   2.8791   2.8815
     2.8816   2.8823   2.8894   2.8895   2.8910   2.8972   2.9055   2.9056
     2.9231   2.9358   2.9359   2.9366   2.9381   2.9439   2.9453   2.9455
     2.9675   2.9766   2.9827   2.9876   2.9878   2.9925   3.0053   3.0056
     3.0801   3.0950   3.1336   3.2302   3.2531   3.2531   3.3269   3.4137
     3.4137   3.6673   3.7201   3.7203   3.7238   3.7326   4.0327   4.2191
     4.4102   4.6950   4.6957   4.9023   4.9937   5.0022   5.0443   5.7797
     5.7798   5.9946   6.1517   6.1592   6.1786   6.1790   6.4305   6.6789
     6.7178   6.8587   6.8631   7.2689   7.3973   7.4373   7.4701   7.6790
     7.7135   7.7222   7.9074   7.9612   8.1731   8.1778   8.2618   8.3246
     8.3637   8.6479   8.6490   8.7654   8.8076   8.9167   9.1987   9.1999
     9.3031   9.3655   9.5595   9.5953   9.7570   9.8003   9.9127   9.9414
     9.9546   9.9639  10.0052  10.0644  10.2589  10.3494  10.3500  10.4686
    10.4962  10.5139  10.5969  10.6023  10.6877  10.7312  10.7341  10.8016
    10.8923  10.8964  10.9123  11.0861  11.1022  11.2068  11.4051  11.4286
    11.4420  11.4823  11.4976  11.5695  11.6570  11.7542  11.9000  11.9954
    12.0238  12.1382  12.1927  12.2788  12.2976  12.3968  12.4781  12.5133
    12.5231  12.5606  12.5813  12.6574  12.7994  12.7998  12.8344  12.8621
    12.9419  12.9743  13.0892  13.1082  13.1566  13.1891  13.1933  13.2938
    13.3930  13.4650

          k = 0.0000-0.5774 0.0000 ( 61408 PWs)   bands (ev):

  -107.8757-107.8750-107.8723-107.8719-107.8709-107.8699-107.8690-107.8685
  -107.8682-107.8682-107.8680-107.8678-107.8676-107.8668-107.8661-107.8660
  -107.8657-107.8646-107.8642-107.8628-107.8620-107.8619-107.8598-107.8598
  -107.8595-107.8590-107.8589-107.8554-107.8549-107.8528-107.8527-107.8509
  -107.8504-107.8504-107.8503-107.8496-107.6363-107.6351-107.6335-107.6328
  -107.6311-107.6310-107.6297-107.6279-107.6277-107.6163-107.6163-107.6137
  -107.6137-107.6112-107.6112-107.6112-107.6111-107.6111 -65.3266 -65.3262
   -65.3238 -65.3224 -65.3185 -65.3185 -65.3173 -65.3172 -65.3167 -65.3165
   -65.3156 -65.3154 -65.3153 -65.3150 -65.3114 -65.3049 -65.3045 -65.3044
   -65.3039 -65.3039 -65.3036 -65.3035 -65.3028 -65.3025 -65.3002 -65.3001
   -65.2998 -65.2996 -65.2927 -65.2925 -65.2915 -65.2913 -65.2910 -65.2907
   -65.2894 -65.2858 -65.2857 -65.2828 -65.2821 -65.2820 -65.2820 -65.2817
   -65.2815 -65.2808 -65.2790 -65.2789 -65.2784 -65.2783 -65.2780 -65.2779
   -65.2749 -65.2749 -65.2748 -65.2741 -65.2740 -65.2738 -65.2735 -65.2722
   -65.2691 -65.2689 -65.2684 -65.2684 -65.2683 -65.2677 -65.2675 -65.2675
   -65.2675 -65.2674 -65.2673 -65.2667 -65.2644 -65.2643 -65.2640 -65.2638
   -65.2634 -65.2630 -65.2613 -65.2612 -65.2604 -65.2602 -65.2602 -65.2599
   -65.2589 -65.2587 -65.2586 -65.2578 -65.2570 -65.2569 -65.2569 -65.2563
   -65.2563 -65.2560 -65.2559 -65.2530 -65.2529 -65.2528 -65.2527 -65.2514
   -65.2507 -65.2492 -65.2489 -65.2488 -65.2469 -65.2468 -65.2452 -65.2449
   -65.2382 -65.2378 -65.1048 -65.0975 -65.0974 -65.0964 -65.0960 -65.0879
   -65.0800 -65.0800 -65.0800 -65.0799 -65.0783 -65.0781 -65.0665 -65.0663
   -65.0653 -65.0651 -65.0614 -65.0613 -65.0582 -65.0577 -65.0570 -65.0546
   -65.0540 -65.0489 -65.0489 -65.0489 -65.0488 -65.0462 -65.0449 -65.0409
   -65.0406 -65.0405 -65.0378 -65.0377 -65.0287 -65.0287 -65.0119 -65.0106
   -65.0092 -65.0085 -65.0069 -65.0068 -65.0051 -65.0033 -65.0032 -64.9885
   -64.9884 -64.9861 -64.9860 -64.9837 -64.9837 -64.9837 -64.9836 -64.9836
   -12.5411  -9.8080  -9.8022  -6.2192  -6.2038  -4.2371  -3.3031  -3.3029
    -2.7042  -2.7041  -2.6435  -2.3047  -1.8031  -1.7960  -1.7705  -1.7703
    -1.7394  -1.6654  -1.2604  -1.2597  -0.7511  -0.7319  -0.5438  -0.5376
    -0.3892  -0.1578   0.0260   0.0274   0.0406   0.0462   0.0463   0.0465
     0.0465   0.1340   0.1922   0.2068   0.2153   0.2183   0.2196   0.2254
     0.2442   0.2443   0.2443   0.2444   0.2826   0.3002   0.3003   0.3005
     0.3009   0.4272   0.4649   0.4650   0.4653   0.4654   0.5048   0.5467
     0.6423   0.6423   0.6425   0.6425   0.6569   0.6793   0.6804   0.6964
     0.6964   0.6967   0.6967   0.8164   0.8164   0.8165   0.8165   0.8390
     0.8394   0.9278   0.9402   0.9403   0.9404   0.9404   0.9765   0.9765
     1.0210   1.0210   1.0921   1.0922   1.0923   1.0924   1.1529   1.1529
     1.1823   1.1827   1.2030   1.2031   1.2035   1.2037   1.2209   1.2209
     1.2565   1.2586   1.3089   1.3216   1.3220   1.3498   1.3502   1.3700
     1.3712   1.3791   1.3791   1.3794   1.3795   1.4360   1.4367   1.4409
     1.4409   1.4413   1.4413   1.4920   1.4942   1.5154   1.5155   1.5158
     1.5159   1.5253   1.5267   1.5268   1.5831   1.5878   1.6107   1.6122
     1.6128   1.6264   1.6300   1.6632   1.6637   1.6638   1.6640   1.6640
     1.6766   1.6793   1.7272   1.7274   1.7370   1.7375   1.7499   1.7501
     1.7845   1.7847   1.7848   1.7849   1.8074   1.8081   1.8091   1.8092
     1.8093   1.8378   1.8380   1.8387   1.8389   1.8701   1.8703   1.8907
     1.9002   1.9005   1.9615   1.9624   1.9688   1.9690   1.9713   1.9716
     1.9734   1.9734   1.9814   1.9827   1.9892   1.9894   1.9974   2.0147
     2.0164   2.0231   2.0237   2.0246   2.0248   2.0881   2.0960   2.1044
     2.1045   2.1424   2.1740   2.1860   2.1868   2.1870   2.1911   2.1943
     2.1947   2.1954   2.2008   2.2012   2.2217   2.2238   2.2275   2.2636
     2.2662   2.2663   2.2679   2.2861   2.2864   2.2865   2.2865   2.2894
     2.2915   2.3123   2.3124   2.3173   2.3201   2.3296   2.3309   2.3975
     2.4339   2.4426   2.4426   2.4703   2.4704   2.4710   2.4715   2.5026
     2.5033   2.5068   2.5195   2.5422   2.5431   2.5462   2.5464   2.5562
     2.5695   2.5786   2.5831   2.5832   2.5833   2.5835   2.5961   2.6168
     2.6169   2.6183   2.6202   2.6726   2.6727   2.6731   2.6734   2.6837
     2.6845   2.7096   2.7098   2.7393   2.7395   2.7433   2.7442   2.7706
     2.7706   2.7955   2.7982   2.8019   2.8192   2.8588   2.8605   2.8711
     2.8721   2.8805   2.8807   2.8952   2.9086   2.9087   2.9129   2.9131
     2.9145   2.9153   2.9309   2.9354   2.9354   2.9357   2.9359   2.9530
     2.9539   2.9541   2.9608   2.9649   2.9799   2.9826   3.0019   3.0020
     3.0024   3.0034   3.0098   3.0177   3.0391   3.0525   3.0526   3.0533
     3.0533   3.1595   3.1742   3.6913   3.7041   3.7067   3.7117   4.2201
     4.2641   4.2642   4.2644   4.2644   4.5344   4.5348   4.5353   4.5354
     4.8828   4.8876   4.9012   5.0055   5.0301   5.0905   5.0927   5.0939
     5.0953   5.3790   5.7181   5.9725   5.9961   6.0028   6.0661   6.0755
     6.0773   6.0814   6.1353   6.5378   6.5810   7.2581   7.3482   7.3865
     7.3870   7.4071   7.5967   7.9520   7.9821   8.1107   8.2457   8.3878
     8.5091   8.5113   8.5125   8.5277   8.8742   8.9008   8.9116   9.1577
     9.1604   9.1608   9.1685   9.2598   9.4629   9.5829   9.6829   9.7719
     9.7826   9.8195   9.8353   9.8586   9.8905  10.2524  10.3295  10.3424
    10.3811  10.4241  10.4576  10.4627  10.4799  10.8054  10.8703  11.0223
    11.1088  11.1880  11.2440  11.2543  11.3131  11.3836  11.3919  11.4056
    11.4699  11.5402  11.6962  12.0280  12.0959  12.1389  12.1747  12.2225
    12.2405  12.2896  12.4459  12.4956  12.7311  12.8075  12.8638  12.9420
    12.9537  12.9989  13.0226  13.0469  13.0646  13.1866  13.1899  13.2053
    13.2106  13.2647  13.3014  13.3252  13.4366  13.5929  13.6390  13.6395
    13.6981  13.7906

          k = 0.2500-0.7217 0.0000 ( 61343 PWs)   bands (ev):

  -107.8759-107.8742-107.8735-107.8714-107.8699-107.8699-107.8696-107.8689
  -107.8686-107.8681-107.8680-107.8676-107.8674-107.8666-107.8664-107.8660
  -107.8657-107.8648-107.8635-107.8632-107.8628-107.8608-107.8603-107.8597
  -107.8596-107.8590-107.8587-107.8555-107.8543-107.8539-107.8517-107.8512
  -107.8507-107.8504-107.8502-107.8496-107.6364-107.6348-107.6340-107.6325
  -107.6311-107.6310-107.6297-107.6280-107.6277-107.6167-107.6152-107.6152
  -107.6123-107.6122-107.6112-107.6112-107.6111-107.6108 -65.3276 -65.3232
   -65.3227 -65.3219 -65.3215 -65.3206 -65.3203 -65.3189 -65.3172 -65.3156
   -65.3154 -65.3143 -65.3115 -65.3097 -65.3093 -65.3092 -65.3090 -65.3065
   -65.3035 -65.3029 -65.3028 -65.3026 -65.3023 -65.3009 -65.3007 -65.2998
   -65.2989 -65.2988 -65.2961 -65.2957 -65.2908 -65.2905 -65.2900 -65.2893
   -65.2868 -65.2866 -65.2859 -65.2856 -65.2853 -65.2825 -65.2820 -65.2817
   -65.2808 -65.2801 -65.2797 -65.2795 -65.2786 -65.2758 -65.2755 -65.2754
   -65.2752 -65.2752 -65.2750 -65.2738 -65.2735 -65.2732 -65.2729 -65.2716
   -65.2713 -65.2700 -65.2698 -65.2696 -65.2694 -65.2690 -65.2673 -65.2662
   -65.2660 -65.2659 -65.2656 -65.2653 -65.2648 -65.2644 -65.2642 -65.2640
   -65.2638 -65.2626 -65.2624 -65.2616 -65.2611 -65.2609 -65.2605 -65.2592
   -65.2589 -65.2582 -65.2581 -65.2580 -65.2579 -65.2578 -65.2577 -65.2575
   -65.2557 -65.2554 -65.2550 -65.2532 -65.2530 -65.2522 -65.2520 -65.2520
   -65.2512 -65.2510 -65.2489 -65.2478 -65.2478 -65.2469 -65.2433 -65.2413
   -65.2413 -65.2376 -65.1028 -65.1022 -65.0996 -65.0930 -65.0895 -65.0886
   -65.0856 -65.0856 -65.0828 -65.0762 -65.0723 -65.0722 -65.0697 -65.0679
   -65.0667 -65.0664 -65.0615 -65.0607 -65.0601 -65.0595 -65.0534 -65.0527
   -65.0507 -65.0498 -65.0498 -65.0489 -65.0487 -65.0447 -65.0441 -65.0440
   -65.0432 -65.0432 -65.0366 -65.0320 -65.0320 -65.0280 -65.0119 -65.0104
   -65.0096 -65.0083 -65.0069 -65.0068 -65.0051 -65.0034 -65.0032 -64.9888
   -64.9875 -64.9874 -64.9847 -64.9846 -64.9837 -64.9837 -64.9836 -64.9833
   -12.5411  -9.8066  -9.8037  -6.2153  -6.2077  -4.2374  -3.5086  -2.9030
    -2.7024  -2.7023  -2.6433  -2.3045  -2.1285  -2.1282  -1.9813  -1.7278
    -1.6872  -1.2715  -1.2688  -0.9011  -0.6916  -0.6915  -0.4342  -0.3410
    -0.3402  -0.2974  -0.2696  -0.1007  -0.1006  -0.0911   0.0739   0.0747
     0.0939   0.0940   0.1103   0.1600   0.1721   0.1723   0.1894   0.2224
     0.2631   0.2881   0.2917   0.2949   0.2950   0.3684   0.3720   0.4329
     0.4334   0.4451   0.4560   0.4835   0.4836   0.4864   0.5049   0.5058
     0.5730   0.5732   0.5986   0.6004   0.6306   0.6307   0.6557   0.6649
     0.6651   0.7333   0.7333   0.7601   0.7823   0.7930   0.7932   0.8687
     0.8688   0.9198   0.9393   0.9395   0.9685   0.9686   1.0260   1.0352
     1.0354   1.0507   1.0508   1.0652   1.1034   1.1310   1.1310   1.1733
     1.1736   1.2007   1.2059   1.2064   1.2077   1.2240   1.2242   1.2836
     1.2839   1.2868   1.2868   1.2900   1.3025   1.3194   1.3205   1.3336
     1.3341   1.3615   1.3626   1.3853   1.3870   1.3877   1.4068   1.4311
     1.4719   1.4800   1.4802   1.4805   1.4814   1.5103   1.5293   1.5331
     1.5339   1.5709   1.5711   1.5720   1.5748   1.5810   1.6040   1.6253
     1.6253   1.6422   1.6423   1.6685   1.6699   1.6793   1.6794   1.6916
     1.6923   1.7068   1.7069   1.7244   1.7247   1.7394   1.7480   1.7717
     1.7830   1.7861   1.7905   1.8080   1.8103   1.8108   1.8177   1.8259
     1.8266   1.8360   1.8361   1.8501   1.8535   1.8551   1.8555   1.8591
     1.8777   1.8831   1.9062   1.9221   1.9241   1.9314   1.9349   1.9357
     1.9428   1.9436   1.9437   1.9468   1.9520   1.9568   1.9584   1.9592
     2.0181   2.0192   2.0799   2.0805   2.0897   2.0930   2.0938   2.0979
     2.1216   2.1218   2.1340   2.1362   2.1457   2.1652   2.1765   2.1771
     2.2010   2.2040   2.2246   2.2436   2.2483   2.2577   2.2584   2.2619
     2.2621   2.2639   2.2675   2.2710   2.2757   2.2792   2.3019   2.3174
     2.3454   2.3479   2.3493   2.3530   2.3604   2.3628   2.3671   2.3918
     2.3969   2.4034   2.4159   2.4405   2.4423   2.4591   2.4655   2.4667
     2.4769   2.4795   2.5104   2.5188   2.5242   2.5248   2.5511   2.5517
     2.5734   2.5797   2.5804   2.5985   2.5997   2.6221   2.6226   2.6235
     2.6270   2.6298   2.6429   2.6430   2.6476   2.6540   2.6571   2.6746
     2.7118   2.7184   2.7186   2.7215   2.7691   2.7694   2.7797   2.7814
     2.8120   2.8247   2.8252   2.8309   2.8312   2.8456   2.8486   2.8754
     2.8761   2.8762   2.8858   2.8860   2.8973   2.8992   2.9004   2.9007
     2.9025   2.9098   2.9100   2.9108   2.9133   2.9278   2.9285   2.9434
     2.9440   2.9494   2.9545   2.9546   2.9660   2.9820   2.9867   2.9928
     2.9932   3.0103   3.0416   3.0418   3.0525   3.0739   3.0742   3.2283
     3.2329   3.3417   3.3418   3.4437   3.4441   3.5468   3.7685   3.7708
     4.1477   4.1592   4.2525   4.2528   4.2658   4.5284   4.6382   4.6441
     4.6605   4.6606   4.7857   5.1063   5.1339   5.1348   5.5783   5.6185
     5.6382   5.6841   5.8709   5.8899   5.8916   6.0217   6.0281   6.1129
     6.1854   6.5578   6.6359   6.6379   6.8111   6.8754   6.9579   7.0145
     7.0153   7.3046   7.3805   7.3941   7.5650   7.7691   7.8412   7.9307
     8.4332   8.4367   8.4669   8.5401   8.7174   9.0415   9.0959   9.1272
     9.2015   9.2885   9.3243   9.4411   9.4502   9.6159   9.6488   9.6573
     9.7776   9.8342  10.0098  10.1151  10.1429  10.3272  10.3887  10.4625
    10.4957  10.5714  10.6529  10.7710  10.8072  11.0341  11.1300  11.1454
    11.2461  11.2762  11.4108  11.4409  11.4461  11.5864  11.6205  11.6713
    11.6837  11.7697  11.8140  11.8383  11.9809  12.0764  12.1176  12.1720
    12.2631  12.3369  12.3642  12.3948  12.4568  12.4763  12.5417  12.5914
    12.6885  12.7071  12.7946  12.8998  12.9397  12.9544  13.1408  13.2382
    13.2626  13.2822  13.3614  13.3898  13.4594  13.4874  13.5285  13.6183
    13.6469  13.6645

          k =-0.2500 0.1443 0.0000 ( 61417 PWs)   bands (ev):

  -107.8769-107.8734-107.8721-107.8716-107.8711-107.8699-107.8696-107.8691
  -107.8687-107.8679-107.8678-107.8672-107.8671-107.8669-107.8666-107.8659
  -107.8658-107.8656-107.8629-107.8627-107.8618-107.8616-107.8604-107.8603
  -107.8598-107.8587-107.8587-107.8563-107.8536-107.8526-107.8525-107.8513
  -107.8512-107.8507-107.8498-107.8495-107.6370-107.6342-107.6334-107.6328
  -107.6313-107.6312-107.6297-107.6279-107.6278-107.6175-107.6146-107.6135
  -107.6135-107.6120-107.6120-107.6116-107.6105-107.6105 -65.3304 -65.3212
   -65.3207 -65.3195 -65.3184 -65.3183 -65.3178 -65.3176 -65.3146 -65.3146
   -65.3138 -65.3137 -65.3120 -65.3119 -65.3073 -65.3059 -65.3058 -65.3038
   -65.3033 -65.3022 -65.3020 -65.3020 -65.3018 -65.3016 -65.2995 -65.2995
   -65.2991 -65.2989 -65.2948 -65.2948 -65.2918 -65.2917 -65.2915 -65.2904
   -65.2903 -65.2897 -65.2890 -65.2890 -65.2869 -65.2868 -65.2844 -65.2844
   -65.2811 -65.2809 -65.2807 -65.2804 -65.2796 -65.2795 -65.2787 -65.2777
   -65.2774 -65.2764 -65.2761 -65.2749 -65.2747 -65.2745 -65.2738 -65.2731
   -65.2730 -65.2711 -65.2709 -65.2708 -65.2706 -65.2705 -65.2704 -65.2679
   -65.2678 -65.2657 -65.2656 -65.2650 -65.2649 -65.2634 -65.2633 -65.2630
   -65.2625 -65.2623 -65.2623 -65.2619 -65.2618 -65.2617 -65.2616 -65.2600
   -65.2599 -65.2582 -65.2580 -65.2576 -65.2570 -65.2564 -65.2561 -65.2559
   -65.2558 -65.2553 -65.2545 -65.2524 -65.2523 -65.2507 -65.2491 -65.2490
   -65.2490 -65.2481 -65.2478 -65.2455 -65.2454 -65.2447 -65.2421 -65.2416
   -65.2385 -65.2354 -65.1006 -65.0952 -65.0952 -65.0937 -65.0934 -65.0837
   -65.0819 -65.0818 -65.0781 -65.0780 -65.0770 -65.0769 -65.0762 -65.0761
   -65.0731 -65.0650 -65.0649 -65.0593 -65.0592 -65.0581 -65.0577 -65.0565
   -65.0564 -65.0535 -65.0535 -65.0496 -65.0456 -65.0425 -65.0409 -65.0408
   -65.0398 -65.0368 -65.0367 -65.0328 -65.0289 -65.0257 -65.0124 -65.0098
   -65.0091 -65.0085 -65.0071 -65.0070 -65.0051 -65.0033 -65.0032 -64.9897
   -64.9869 -64.9858 -64.9858 -64.9845 -64.9845 -64.9841 -64.9831 -64.9831
   -12.5420  -9.8043  -9.8017  -6.2164  -6.2081  -4.2641  -3.9286  -3.3123
    -2.6714  -2.3695  -2.3255  -2.3009  -1.7779  -1.6991  -1.6591  -1.6146
    -1.6141  -1.2541  -1.1306  -1.1301  -0.9761  -0.5585  -0.5584  -0.4910
    -0.4668  -0.4521  -0.3473  -0.3374  -0.2721  -0.2716  -0.1370  -0.1039
    -0.0992  -0.0015   0.0030   0.0032   0.1791   0.1799   0.2093   0.2439
     0.2729   0.2751   0.2849   0.4589   0.4638   0.4937   0.4937   0.5200
     0.5297   0.5297   0.5537   0.5538   0.6004   0.6014   0.6030   0.6035
     0.6159   0.6160   0.6560   0.6560   0.6928   0.6928   0.7212   0.7212
     0.7296   0.7721   0.7724   0.7869   0.7869   0.8093   0.8094   0.8221
     0.8221   0.8560   0.8560   0.8967   0.9654   0.9654   0.9718   0.9956
     0.9956   1.0099   1.0101   1.0460   1.0461   1.0805   1.0832   1.0832
     1.1456   1.1456   1.1715   1.1724   1.1930   1.1930   1.2380   1.2382
     1.2550   1.2751   1.2815   1.2818   1.3098   1.3502   1.3503   1.3699
     1.3699   1.3767   1.4134   1.4148   1.4252   1.4499   1.4499   1.4571
     1.4897   1.4899   1.5188   1.5555   1.5680   1.5783   1.5783   1.5912
     1.5913   1.5914   1.6290   1.6303   1.6355   1.6479   1.6480   1.6634
     1.6685   1.6687   1.6854   1.6887   1.6988   1.7064   1.7184   1.7268
     1.7270   1.7365   1.7416   1.7418   1.7436   1.7610   1.7615   1.7648
     1.7649   1.7690   1.7891   1.7919   1.8022   1.8134   1.8147   1.8239
     1.8254   1.8378   1.8384   1.8736   1.8738   1.8838   1.8841   1.8848
     1.8994   1.9083   1.9083   1.9097   1.9165   1.9189   1.9246   1.9398
     1.9740   1.9806   1.9851   1.9872   1.9947   1.9949   2.0061   2.0193
     2.0202   2.0214   2.0254   2.0481   2.0482   2.0619   2.0947   2.0990
     2.1277   2.1286   2.1393   2.1404   2.1463   2.1463   2.2090   2.2249
     2.2452   2.2493   2.2538   2.2575   2.2675   2.2713   2.2732   2.2879
     2.3008   2.3107   2.3140   2.3206   2.3216   2.3275   2.3584   2.3597
     2.3826   2.3895   2.3912   2.3936   2.3998   2.4254   2.4306   2.4310
     2.4361   2.4408   2.4674   2.4791   2.4826   2.4891   2.4894   2.5068
     2.5111   2.5113   2.5278   2.5314   2.5315   2.5324   2.5408   2.5442
     2.5687   2.5787   2.6161   2.6198   2.6256   2.6536   2.6545   2.6626
     2.6657   2.6661   2.6670   2.6701   2.6903   2.6906   2.6932   2.7055
     2.7077   2.7104   2.7136   2.7165   2.7416   2.7590   2.7590   2.7635
     2.7730   2.7732   2.7943   2.7949   2.8011   2.8022   2.8457   2.8464
     2.8465   2.8567   2.8567   2.8594   2.8702   2.8712   2.8791   2.8815
     2.8816   2.8823   2.8894   2.8895   2.8910   2.8972   2.9055   2.9056
     2.9231   2.9358   2.9359   2.9366   2.9381   2.9439   2.9453   2.9455
     2.9675   2.9766   2.9827   2.9876   2.9878   2.9925   3.0053   3.0056
     3.0801   3.0950   3.1336   3.2302   3.2531   3.2531   3.3269   3.4137
     3.4137   3.6673   3.7201   3.7203   3.7238   3.7326   4.0327   4.2191
     4.4102   4.6950   4.6956   4.9023   4.9937   5.0022   5.0443   5.7797
     5.7798   5.9946   6.1517   6.1591   6.1786   6.1790   6.4305   6.6789
     6.7178   6.8587   6.8631   7.2689   7.3975   7.4372   7.4700   7.6790
     7.7135   7.7222   7.9074   7.9612   8.1731   8.1778   8.2618   8.3246
     8.3637   8.6479   8.6490   8.7655   8.8077   8.9166   9.1987   9.1999
     9.3031   9.3655   9.5595   9.5953   9.7571   9.8002   9.9127   9.9414
     9.9546   9.9639  10.0052  10.0644  10.2589  10.3494  10.3500  10.4686
    10.4962  10.5139  10.5969  10.6023  10.6877  10.7312  10.7340  10.8016
    10.8922  10.8964  10.9123  11.0861  11.1022  11.2068  11.4051  11.4286
    11.4420  11.4823  11.4977  11.5695  11.6569  11.7542  11.9000  11.9954
    12.0238  12.1382  12.1927  12.2788  12.2976  12.3968  12.4781  12.5133
    12.5231  12.5606  12.5813  12.6574  12.7994  12.7998  12.8344  12.8622
    12.9419  12.9743  13.0892  13.1082  13.1566  13.1891  13.1933  13.2938
    13.3930  13.4649

          k = 0.2500 0.1443 0.0000 ( 61417 PWs)   bands (ev):

  -107.8769-107.8734-107.8721-107.8716-107.8711-107.8699-107.8696-107.8691
  -107.8687-107.8679-107.8678-107.8672-107.8671-107.8669-107.8666-107.8659
  -107.8658-107.8656-107.8629-107.8627-107.8618-107.8616-107.8604-107.8603
  -107.8598-107.8587-107.8587-107.8563-107.8536-107.8526-107.8525-107.8513
  -107.8512-107.8507-107.8498-107.8495-107.6370-107.6342-107.6334-107.6328
  -107.6313-107.6312-107.6297-107.6279-107.6278-107.6175-107.6146-107.6135
  -107.6135-107.6120-107.6120-107.6116-107.6105-107.6105 -65.3304 -65.3212
   -65.3207 -65.3195 -65.3184 -65.3183 -65.3178 -65.3176 -65.3146 -65.3146
   -65.3138 -65.3137 -65.3120 -65.3119 -65.3073 -65.3059 -65.3058 -65.3038
   -65.3033 -65.3022 -65.3020 -65.3020 -65.3018 -65.3016 -65.2995 -65.2995
   -65.2991 -65.2989 -65.2948 -65.2948 -65.2918 -65.2917 -65.2915 -65.2904
   -65.2903 -65.2897 -65.2890 -65.2890 -65.2869 -65.2868 -65.2844 -65.2844
   -65.2811 -65.2809 -65.2807 -65.2804 -65.2796 -65.2795 -65.2787 -65.2777
   -65.2774 -65.2764 -65.2761 -65.2749 -65.2747 -65.2745 -65.2738 -65.2731
   -65.2730 -65.2711 -65.2709 -65.2708 -65.2706 -65.2705 -65.2704 -65.2679
   -65.2678 -65.2657 -65.2656 -65.2650 -65.2649 -65.2634 -65.2633 -65.2630
   -65.2625 -65.2623 -65.2623 -65.2619 -65.2618 -65.2617 -65.2616 -65.2600
   -65.2599 -65.2582 -65.2580 -65.2576 -65.2570 -65.2564 -65.2561 -65.2559
   -65.2558 -65.2553 -65.2545 -65.2524 -65.2523 -65.2507 -65.2491 -65.2490
   -65.2490 -65.2481 -65.2478 -65.2455 -65.2454 -65.2447 -65.2421 -65.2416
   -65.2385 -65.2354 -65.1006 -65.0952 -65.0952 -65.0937 -65.0934 -65.0837
   -65.0819 -65.0818 -65.0781 -65.0780 -65.0770 -65.0769 -65.0762 -65.0761
   -65.0731 -65.0650 -65.0649 -65.0593 -65.0592 -65.0581 -65.0577 -65.0565
   -65.0564 -65.0535 -65.0535 -65.0496 -65.0456 -65.0425 -65.0409 -65.0408
   -65.0398 -65.0368 -65.0367 -65.0328 -65.0289 -65.0257 -65.0124 -65.0098
   -65.0091 -65.0085 -65.0071 -65.0070 -65.0051 -65.0033 -65.0032 -64.9897
   -64.9869 -64.9858 -64.9858 -64.9845 -64.9845 -64.9841 -64.9831 -64.9831
   -12.5420  -9.8043  -9.8016  -6.2163  -6.2081  -4.2641  -3.9286  -3.3123
    -2.6714  -2.3695  -2.3255  -2.3009  -1.7779  -1.6992  -1.6590  -1.6146
    -1.6141  -1.2541  -1.1306  -1.1301  -0.9761  -0.5585  -0.5584  -0.4910
    -0.4668  -0.4521  -0.3473  -0.3374  -0.2721  -0.2716  -0.1370  -0.1039
    -0.0992  -0.0015   0.0030   0.0032   0.1791   0.1799   0.2093   0.2438
     0.2729   0.2751   0.2850   0.4589   0.4638   0.4937   0.4937   0.5200
     0.5297   0.5297   0.5537   0.5538   0.6004   0.6014   0.6030   0.6035
     0.6159   0.6160   0.6560   0.6560   0.6928   0.6928   0.7212   0.7212
     0.7296   0.7721   0.7724   0.7869   0.7869   0.8093   0.8094   0.8221
     0.8221   0.8560   0.8560   0.8967   0.9654   0.9654   0.9718   0.9956
     0.9956   1.0099   1.0101   1.0460   1.0461   1.0805   1.0832   1.0832
     1.1456   1.1456   1.1715   1.1724   1.1930   1.1930   1.2380   1.2382
     1.2550   1.2751   1.2815   1.2818   1.3098   1.3502   1.3503   1.3699
     1.3699   1.3767   1.4134   1.4148   1.4252   1.4499   1.4499   1.4571
     1.4897   1.4899   1.5188   1.5555   1.5680   1.5783   1.5783   1.5912
     1.5913   1.5914   1.6290   1.6303   1.6355   1.6479   1.6480   1.6634
     1.6685   1.6687   1.6854   1.6887   1.6988   1.7064   1.7184   1.7268
     1.7270   1.7365   1.7416   1.7418   1.7436   1.7610   1.7615   1.7648
     1.7649   1.7690   1.7891   1.7919   1.8022   1.8134   1.8147   1.8239
     1.8254   1.8378   1.8384   1.8736   1.8738   1.8838   1.8841   1.8848
     1.8994   1.9083   1.9083   1.9097   1.9165   1.9189   1.9246   1.9398
     1.9740   1.9806   1.9851   1.9872   1.9947   1.9949   2.0061   2.0193
     2.0202   2.0214   2.0254   2.0481   2.0482   2.0619   2.0947   2.0990
     2.1277   2.1286   2.1393   2.1404   2.1463   2.1463   2.2090   2.2249
     2.2452   2.2492   2.2538   2.2575   2.2675   2.2713   2.2732   2.2879
     2.3008   2.3107   2.3140   2.3206   2.3216   2.3275   2.3584   2.3597
     2.3826   2.3895   2.3912   2.3936   2.3998   2.4254   2.4306   2.4310
     2.4361   2.4408   2.4674   2.4791   2.4826   2.4891   2.4894   2.5068
     2.5111   2.5113   2.5278   2.5314   2.5315   2.5324   2.5408   2.5442
     2.5687   2.5787   2.6161   2.6198   2.6256   2.6536   2.6545   2.6626
     2.6657   2.6661   2.6670   2.6701   2.6903   2.6906   2.6932   2.7055
     2.7077   2.7104   2.7136   2.7165   2.7416   2.7590   2.7590   2.7635
     2.7730   2.7732   2.7943   2.7949   2.8011   2.8022   2.8457   2.8464
     2.8465   2.8567   2.8567   2.8594   2.8702   2.8712   2.8791   2.8815
     2.8816   2.8823   2.8894   2.8895   2.8910   2.8972   2.9055   2.9056
     2.9231   2.9358   2.9359   2.9366   2.9381   2.9439   2.9453   2.9455
     2.9675   2.9766   2.9827   2.9876   2.9878   2.9925   3.0053   3.0056
     3.0801   3.0950   3.1336   3.2302   3.2531   3.2531   3.3269   3.4137
     3.4137   3.6673   3.7201   3.7203   3.7238   3.7326   4.0327   4.2191
     4.4102   4.6950   4.6956   4.9023   4.9937   5.0022   5.0443   5.7797
     5.7798   5.9946   6.1517   6.1591   6.1786   6.1790   6.4305   6.6789
     6.7178   6.8587   6.8631   7.2689   7.3975   7.4372   7.4700   7.6790
     7.7135   7.7222   7.9074   7.9612   8.1731   8.1778   8.2618   8.3246
     8.3637   8.6479   8.6490   8.7655   8.8077   8.9166   9.1987   9.1999
     9.3031   9.3655   9.5595   9.5953   9.7571   9.8002   9.9127   9.9414
     9.9546   9.9639  10.0052  10.0644  10.2589  10.3494  10.3500  10.4686
    10.4962  10.5139  10.5969  10.6023  10.6877  10.7312  10.7340  10.8016
    10.8922  10.8964  10.9123  11.0861  11.1022  11.2068  11.4051  11.4286
    11.4420  11.4823  11.4976  11.5695  11.6570  11.7542  11.9000  11.9954
    12.0238  12.1382  12.1927  12.2788  12.2976  12.3968  12.4781  12.5133
    12.5231  12.5607  12.5813  12.6574  12.7994  12.7998  12.8344  12.8622
    12.9419  12.9743  13.0892  13.1082  13.1566  13.1891  13.1933  13.2938
    13.3930  13.4650

          k = 0.5000-0.2887 0.0000 ( 61408 PWs)   bands (ev):

  -107.8757-107.8750-107.8723-107.8719-107.8709-107.8699-107.8690-107.8685
  -107.8682-107.8682-107.8680-107.8678-107.8676-107.8668-107.8661-107.8660
  -107.8657-107.8646-107.8642-107.8628-107.8620-107.8619-107.8598-107.8598
  -107.8595-107.8590-107.8589-107.8554-107.8549-107.8528-107.8527-107.8509
  -107.8504-107.8504-107.8503-107.8496-107.6363-107.6351-107.6335-107.6328
  -107.6311-107.6309-107.6297-107.6279-107.6277-107.6163-107.6163-107.6137
  -107.6137-107.6113-107.6112-107.6112-107.6111-107.6111 -65.3266 -65.3261
   -65.3238 -65.3224 -65.3185 -65.3185 -65.3173 -65.3172 -65.3167 -65.3165
   -65.3156 -65.3154 -65.3154 -65.3150 -65.3114 -65.3049 -65.3045 -65.3044
   -65.3039 -65.3039 -65.3036 -65.3035 -65.3028 -65.3025 -65.3002 -65.3001
   -65.2998 -65.2996 -65.2927 -65.2925 -65.2915 -65.2913 -65.2910 -65.2907
   -65.2894 -65.2858 -65.2857 -65.2828 -65.2821 -65.2820 -65.2820 -65.2817
   -65.2815 -65.2808 -65.2790 -65.2789 -65.2784 -65.2783 -65.2780 -65.2779
   -65.2749 -65.2749 -65.2748 -65.2741 -65.2740 -65.2738 -65.2735 -65.2722
   -65.2691 -65.2689 -65.2684 -65.2684 -65.2683 -65.2677 -65.2675 -65.2675
   -65.2675 -65.2674 -65.2673 -65.2667 -65.2644 -65.2643 -65.2640 -65.2638
   -65.2634 -65.2630 -65.2613 -65.2612 -65.2604 -65.2602 -65.2602 -65.2599
   -65.2589 -65.2587 -65.2586 -65.2578 -65.2571 -65.2569 -65.2569 -65.2563
   -65.2563 -65.2560 -65.2559 -65.2530 -65.2529 -65.2528 -65.2527 -65.2514
   -65.2507 -65.2492 -65.2489 -65.2488 -65.2469 -65.2468 -65.2452 -65.2449
   -65.2382 -65.2378 -65.1048 -65.0975 -65.0974 -65.0964 -65.0960 -65.0879
   -65.0800 -65.0800 -65.0800 -65.0799 -65.0783 -65.0781 -65.0665 -65.0663
   -65.0653 -65.0651 -65.0614 -65.0613 -65.0582 -65.0577 -65.0570 -65.0546
   -65.0540 -65.0489 -65.0489 -65.0489 -65.0488 -65.0462 -65.0449 -65.0409
   -65.0406 -65.0405 -65.0378 -65.0377 -65.0287 -65.0287 -65.0119 -65.0106
   -65.0092 -65.0086 -65.0069 -65.0068 -65.0051 -65.0033 -65.0032 -64.9885
   -64.9884 -64.9861 -64.9860 -64.9837 -64.9837 -64.9837 -64.9836 -64.9836
   -12.5411  -9.8078  -9.8024  -6.2197  -6.2034  -4.2371  -3.3031  -3.3029
    -2.7042  -2.7041  -2.6435  -2.3047  -1.8031  -1.7960  -1.7705  -1.7703
    -1.7393  -1.6655  -1.2604  -1.2597  -0.7511  -0.7319  -0.5438  -0.5376
    -0.3892  -0.1578   0.0260   0.0274   0.0406   0.0462   0.0463   0.0465
     0.0465   0.1340   0.1923   0.2068   0.2153   0.2183   0.2197   0.2254
     0.2442   0.2443   0.2443   0.2444   0.2824   0.3002   0.3003   0.3005
     0.3009   0.4272   0.4649   0.4650   0.4653   0.4654   0.5048   0.5467
     0.6423   0.6423   0.6425   0.6425   0.6569   0.6793   0.6804   0.6964
     0.6964   0.6967   0.6967   0.8164   0.8164   0.8165   0.8165   0.8390
     0.8394   0.9278   0.9402   0.9403   0.9404   0.9404   0.9765   0.9765
     1.0210   1.0210   1.0921   1.0922   1.0923   1.0924   1.1529   1.1529
     1.1823   1.1827   1.2030   1.2031   1.2035   1.2037   1.2209   1.2209
     1.2565   1.2586   1.3089   1.3216   1.3220   1.3498   1.3502   1.3700
     1.3712   1.3791   1.3791   1.3794   1.3795   1.4360   1.4367   1.4409
     1.4409   1.4413   1.4413   1.4920   1.4942   1.5154   1.5155   1.5158
     1.5159   1.5253   1.5267   1.5268   1.5831   1.5878   1.6107   1.6122
     1.6128   1.6264   1.6300   1.6632   1.6637   1.6638   1.6640   1.6640
     1.6766   1.6793   1.7272   1.7274   1.7370   1.7375   1.7499   1.7501
     1.7845   1.7847   1.7848   1.7849   1.8074   1.8081   1.8091   1.8092
     1.8093   1.8378   1.8380   1.8387   1.8389   1.8701   1.8703   1.8907
     1.9002   1.9005   1.9615   1.9624   1.9688   1.9690   1.9713   1.9716
     1.9734   1.9734   1.9814   1.9827   1.9892   1.9894   1.9974   2.0147
     2.0164   2.0231   2.0236   2.0246   2.0248   2.0881   2.0960   2.1044
     2.1045   2.1424   2.1740   2.1860   2.1868   2.1870   2.1911   2.1943
     2.1947   2.1954   2.2008   2.2012   2.2217   2.2238   2.2275   2.2636
     2.2662   2.2663   2.2679   2.2861   2.2864   2.2865   2.2865   2.2894
     2.2915   2.3123   2.3124   2.3173   2.3201   2.3296   2.3308   2.3976
     2.4340   2.4425   2.4426   2.4703   2.4704   2.4710   2.4715   2.5026
     2.5033   2.5068   2.5195   2.5422   2.5431   2.5462   2.5464   2.5562
     2.5695   2.5786   2.5831   2.5832   2.5833   2.5835   2.5961   2.6168
     2.6169   2.6183   2.6202   2.6726   2.6727   2.6731   2.6734   2.6837
     2.6845   2.7096   2.7098   2.7393   2.7395   2.7433   2.7442   2.7706
     2.7706   2.7955   2.7982   2.8019   2.8192   2.8588   2.8605   2.8711
     2.8721   2.8805   2.8807   2.8952   2.9086   2.9087   2.9129   2.9131
     2.9145   2.9153   2.9309   2.9354   2.9354   2.9357   2.9359   2.9530
     2.9539   2.9541   2.9608   2.9649   2.9799   2.9826   3.0019   3.0020
     3.0024   3.0034   3.0098   3.0177   3.0391   3.0525   3.0526   3.0533
     3.0533   3.1595   3.1742   3.6913   3.7041   3.7067   3.7117   4.2201
     4.2641   4.2642   4.2644   4.2644   4.5344   4.5348   4.5353   4.5354
     4.8828   4.8876   4.9012   5.0055   5.0301   5.0905   5.0928   5.0939
     5.0953   5.3790   5.7181   5.9725   5.9961   6.0028   6.0661   6.0755
     6.0773   6.0814   6.1353   6.5378   6.5810   7.2582   7.3481   7.3865
     7.3870   7.4070   7.5968   7.9521   7.9821   8.1107   8.2457   8.3877
     8.5091   8.5113   8.5125   8.5277   8.8742   8.9008   8.9116   9.1577
     9.1604   9.1608   9.1685   9.2598   9.4629   9.5829   9.6830   9.7719
     9.7826   9.8195   9.8353   9.8587   9.8905  10.2524  10.3296  10.3424
    10.3811  10.4241  10.4576  10.4627  10.4800  10.8054  10.8702  11.0224
    11.1088  11.1880  11.2439  11.2543  11.3131  11.3836  11.3920  11.4057
    11.4699  11.5402  11.6962  12.0280  12.0959  12.1389  12.1746  12.2225
    12.2406  12.2897  12.4459  12.4957  12.7311  12.8077  12.8638  12.9420
    12.9537  12.9990  13.0226  13.0469  13.0646  13.1866  13.1898  13.2053
    13.2105  13.2647  13.3014  13.3249  13.4366  13.5929  13.6390  13.6395
    13.6980  13.7906

          k =-0.5000-0.2887 0.0000 ( 61408 PWs)   bands (ev):

  -107.8757-107.8750-107.8723-107.8719-107.8709-107.8699-107.8690-107.8685
  -107.8682-107.8682-107.8680-107.8678-107.8676-107.8668-107.8661-107.8660
  -107.8657-107.8646-107.8642-107.8628-107.8620-107.8619-107.8598-107.8598
  -107.8595-107.8590-107.8589-107.8554-107.8549-107.8528-107.8527-107.8509
  -107.8504-107.8504-107.8503-107.8496-107.6363-107.6351-107.6335-107.6328
  -107.6311-107.6309-107.6297-107.6279-107.6277-107.6163-107.6163-107.6137
  -107.6137-107.6113-107.6112-107.6112-107.6111-107.6111 -65.3266 -65.3261
   -65.3238 -65.3224 -65.3185 -65.3185 -65.3173 -65.3172 -65.3167 -65.3165
   -65.3156 -65.3154 -65.3154 -65.3150 -65.3114 -65.3049 -65.3045 -65.3044
   -65.3039 -65.3039 -65.3036 -65.3035 -65.3028 -65.3025 -65.3002 -65.3001
   -65.2998 -65.2996 -65.2927 -65.2925 -65.2915 -65.2913 -65.2910 -65.2907
   -65.2894 -65.2858 -65.2857 -65.2828 -65.2821 -65.2820 -65.2820 -65.2817
   -65.2815 -65.2808 -65.2790 -65.2789 -65.2784 -65.2783 -65.2780 -65.2779
   -65.2749 -65.2749 -65.2748 -65.2741 -65.2740 -65.2738 -65.2735 -65.2722
   -65.2691 -65.2689 -65.2684 -65.2684 -65.2683 -65.2677 -65.2675 -65.2675
   -65.2675 -65.2674 -65.2673 -65.2667 -65.2644 -65.2643 -65.2640 -65.2638
   -65.2634 -65.2630 -65.2613 -65.2612 -65.2604 -65.2602 -65.2602 -65.2599
   -65.2589 -65.2587 -65.2586 -65.2578 -65.2571 -65.2569 -65.2569 -65.2563
   -65.2563 -65.2560 -65.2559 -65.2530 -65.2529 -65.2528 -65.2527 -65.2514
   -65.2507 -65.2492 -65.2489 -65.2488 -65.2469 -65.2468 -65.2452 -65.2449
   -65.2382 -65.2378 -65.1048 -65.0975 -65.0974 -65.0964 -65.0960 -65.0879
   -65.0800 -65.0800 -65.0800 -65.0799 -65.0783 -65.0781 -65.0665 -65.0663
   -65.0653 -65.0651 -65.0614 -65.0613 -65.0582 -65.0577 -65.0570 -65.0546
   -65.0540 -65.0489 -65.0489 -65.0489 -65.0488 -65.0462 -65.0449 -65.0409
   -65.0406 -65.0405 -65.0378 -65.0377 -65.0287 -65.0287 -65.0119 -65.0106
   -65.0092 -65.0086 -65.0069 -65.0068 -65.0051 -65.0033 -65.0032 -64.9885
   -64.9884 -64.9861 -64.9860 -64.9837 -64.9837 -64.9837 -64.9836 -64.9836
   -12.5411  -9.8079  -9.8024  -6.2196  -6.2035  -4.2371  -3.3031  -3.3029
    -2.7042  -2.7041  -2.6435  -2.3047  -1.8031  -1.7960  -1.7705  -1.7703
    -1.7394  -1.6654  -1.2604  -1.2597  -0.7511  -0.7319  -0.5438  -0.5376
    -0.3892  -0.1578   0.0260   0.0274   0.0406   0.0462   0.0463   0.0465
     0.0465   0.1340   0.1922   0.2068   0.2153   0.2183   0.2197   0.2254
     0.2442   0.2443   0.2443   0.2444   0.2825   0.3002   0.3003   0.3005
     0.3009   0.4272   0.4649   0.4650   0.4653   0.4654   0.5048   0.5467
     0.6423   0.6423   0.6425   0.6425   0.6569   0.6793   0.6804   0.6964
     0.6964   0.6967   0.6967   0.8164   0.8164   0.8165   0.8165   0.8390
     0.8394   0.9278   0.9402   0.9403   0.9404   0.9404   0.9765   0.9765
     1.0210   1.0210   1.0921   1.0922   1.0923   1.0924   1.1529   1.1529
     1.1823   1.1827   1.2030   1.2031   1.2035   1.2037   1.2209   1.2209
     1.2565   1.2586   1.3089   1.3216   1.3220   1.3498   1.3502   1.3700
     1.3712   1.3791   1.3791   1.3794   1.3795   1.4360   1.4367   1.4409
     1.4409   1.4413   1.4413   1.4920   1.4942   1.5154   1.5155   1.5158
     1.5159   1.5253   1.5267   1.5268   1.5831   1.5878   1.6107   1.6122
     1.6128   1.6264   1.6300   1.6632   1.6637   1.6638   1.6640   1.6640
     1.6766   1.6793   1.7272   1.7274   1.7370   1.7375   1.7499   1.7501
     1.7845   1.7847   1.7848   1.7849   1.8074   1.8081   1.8091   1.8092
     1.8093   1.8378   1.8380   1.8387   1.8389   1.8701   1.8703   1.8907
     1.9002   1.9005   1.9615   1.9624   1.9688   1.9690   1.9713   1.9716
     1.9734   1.9734   1.9814   1.9827   1.9892   1.9894   1.9974   2.0147
     2.0164   2.0231   2.0236   2.0246   2.0248   2.0881   2.0960   2.1044
     2.1045   2.1424   2.1740   2.1860   2.1868   2.1870   2.1911   2.1943
     2.1947   2.1954   2.2008   2.2012   2.2217   2.2238   2.2275   2.2636
     2.2662   2.2663   2.2679   2.2861   2.2864   2.2865   2.2865   2.2894
     2.2915   2.3123   2.3124   2.3173   2.3201   2.3296   2.3308   2.3976
     2.4340   2.4425   2.4426   2.4703   2.4704   2.4710   2.4715   2.5026
     2.5033   2.5068   2.5195   2.5422   2.5431   2.5462   2.5464   2.5562
     2.5695   2.5786   2.5831   2.5832   2.5833   2.5835   2.5961   2.6168
     2.6169   2.6183   2.6202   2.6726   2.6727   2.6731   2.6734   2.6837
     2.6845   2.7096   2.7098   2.7393   2.7395   2.7433   2.7442   2.7706
     2.7706   2.7955   2.7982   2.8019   2.8192   2.8588   2.8605   2.8711
     2.8721   2.8805   2.8807   2.8952   2.9086   2.9087   2.9129   2.9131
     2.9145   2.9153   2.9309   2.9354   2.9354   2.9357   2.9359   2.9530
     2.9539   2.9541   2.9608   2.9649   2.9799   2.9826   3.0019   3.0020
     3.0024   3.0034   3.0098   3.0177   3.0391   3.0525   3.0526   3.0533
     3.0533   3.1595   3.1742   3.6913   3.7041   3.7067   3.7117   4.2201
     4.2641   4.2642   4.2644   4.2644   4.5344   4.5348   4.5353   4.5354
     4.8828   4.8876   4.9012   5.0055   5.0301   5.0905   5.0928   5.0939
     5.0953   5.3790   5.7181   5.9725   5.9961   6.0028   6.0661   6.0755
     6.0773   6.0814   6.1353   6.5378   6.5810   7.2582   7.3481   7.3865
     7.3870   7.4070   7.5968   7.9521   7.9821   8.1107   8.2457   8.3877
     8.5091   8.5113   8.5125   8.5277   8.8742   8.9008   8.9116   9.1577
     9.1604   9.1608   9.1685   9.2598   9.4629   9.5829   9.6830   9.7719
     9.7826   9.8195   9.8353   9.8587   9.8905  10.2524  10.3296  10.3424
    10.3811  10.4241  10.4576  10.4627  10.4800  10.8054  10.8702  11.0224
    11.1088  11.1880  11.2439  11.2543  11.3131  11.3836  11.3920  11.4057
    11.4699  11.5402  11.6962  12.0280  12.0959  12.1389  12.1746  12.2225
    12.2406  12.2897  12.4459  12.4957  12.7310  12.8077  12.8638  12.9420
    12.9537  12.9990  13.0226  13.0469  13.0646  13.1866  13.1898  13.2053
    13.2105  13.2647  13.3014  13.3249  13.4366  13.5929  13.6389  13.6395
    13.6980  13.7906

          k =-0.2500-0.7217 0.0000 ( 61343 PWs)   bands (ev):

  -107.8759-107.8742-107.8735-107.8714-107.8699-107.8699-107.8696-107.8689
  -107.8686-107.8681-107.8680-107.8676-107.8674-107.8666-107.8664-107.8660
  -107.8657-107.8648-107.8635-107.8632-107.8628-107.8608-107.8603-107.8597
  -107.8596-107.8590-107.8587-107.8555-107.8543-107.8539-107.8517-107.8512
  -107.8507-107.8504-107.8502-107.8496-107.6364-107.6348-107.6340-107.6325
  -107.6311-107.6310-107.6297-107.6280-107.6277-107.6167-107.6152-107.6152
  -107.6123-107.6122-107.6112-107.6112-107.6111-107.6108 -65.3276 -65.3232
   -65.3227 -65.3219 -65.3215 -65.3206 -65.3203 -65.3189 -65.3172 -65.3156
   -65.3154 -65.3143 -65.3115 -65.3097 -65.3093 -65.3092 -65.3090 -65.3065
   -65.3035 -65.3029 -65.3028 -65.3026 -65.3023 -65.3009 -65.3007 -65.2998
   -65.2989 -65.2988 -65.2961 -65.2957 -65.2908 -65.2905 -65.2900 -65.2893
   -65.2868 -65.2866 -65.2859 -65.2856 -65.2853 -65.2825 -65.2820 -65.2817
   -65.2808 -65.2801 -65.2797 -65.2795 -65.2786 -65.2758 -65.2755 -65.2754
   -65.2752 -65.2752 -65.2750 -65.2738 -65.2735 -65.2732 -65.2729 -65.2716
   -65.2713 -65.2700 -65.2698 -65.2696 -65.2694 -65.2690 -65.2673 -65.2662
   -65.2660 -65.2659 -65.2656 -65.2653 -65.2648 -65.2644 -65.2642 -65.2640
   -65.2638 -65.2626 -65.2624 -65.2616 -65.2611 -65.2609 -65.2605 -65.2592
   -65.2589 -65.2582 -65.2581 -65.2580 -65.2579 -65.2578 -65.2577 -65.2575
   -65.2557 -65.2554 -65.2550 -65.2532 -65.2530 -65.2522 -65.2520 -65.2520
   -65.2512 -65.2510 -65.2489 -65.2478 -65.2478 -65.2469 -65.2433 -65.2413
   -65.2413 -65.2376 -65.1028 -65.1022 -65.0996 -65.0930 -65.0895 -65.0886
   -65.0856 -65.0856 -65.0828 -65.0762 -65.0723 -65.0722 -65.0697 -65.0679
   -65.0667 -65.0664 -65.0615 -65.0607 -65.0601 -65.0595 -65.0534 -65.0527
   -65.0507 -65.0498 -65.0498 -65.0489 -65.0487 -65.0447 -65.0441 -65.0440
   -65.0432 -65.0432 -65.0366 -65.0320 -65.0320 -65.0280 -65.0119 -65.0104
   -65.0096 -65.0083 -65.0069 -65.0068 -65.0051 -65.0034 -65.0032 -64.9888
   -64.9875 -64.9874 -64.9847 -64.9846 -64.9837 -64.9837 -64.9836 -64.9833
   -12.5411  -9.8066  -9.8037  -6.2154  -6.2077  -4.2374  -3.5086  -2.9030
    -2.7024  -2.7023  -2.6433  -2.3045  -2.1285  -2.1282  -1.9813  -1.7277
    -1.6873  -1.2715  -1.2688  -0.9011  -0.6916  -0.6915  -0.4342  -0.3410
    -0.3402  -0.2974  -0.2696  -0.1007  -0.1006  -0.0911   0.0739   0.0747
     0.0939   0.0940   0.1103   0.1600   0.1721   0.1723   0.1894   0.2225
     0.2630   0.2881   0.2917   0.2949   0.2950   0.3684   0.3720   0.4329
     0.4334   0.4451   0.4560   0.4835   0.4836   0.4864   0.5049   0.5058
     0.5730   0.5732   0.5986   0.6004   0.6306   0.6307   0.6557   0.6649
     0.6651   0.7333   0.7333   0.7601   0.7823   0.7930   0.7932   0.8687
     0.8688   0.9198   0.9393   0.9395   0.9685   0.9686   1.0260   1.0352
     1.0354   1.0507   1.0508   1.0652   1.1034   1.1310   1.1310   1.1733
     1.1736   1.2007   1.2059   1.2064   1.2077   1.2240   1.2242   1.2836
     1.2839   1.2868   1.2868   1.2900   1.3025   1.3194   1.3205   1.3336
     1.3341   1.3615   1.3626   1.3853   1.3870   1.3877   1.4068   1.4311
     1.4719   1.4800   1.4802   1.4805   1.4814   1.5103   1.5293   1.5331
     1.5339   1.5709   1.5711   1.5720   1.5748   1.5810   1.6040   1.6253
     1.6253   1.6422   1.6423   1.6685   1.6699   1.6793   1.6794   1.6916
     1.6923   1.7068   1.7069   1.7244   1.7247   1.7394   1.7480   1.7717
     1.7830   1.7861   1.7905   1.8080   1.8103   1.8108   1.8177   1.8259
     1.8266   1.8360   1.8361   1.8501   1.8535   1.8551   1.8555   1.8591
     1.8777   1.8831   1.9062   1.9221   1.9241   1.9314   1.9349   1.9357
     1.9428   1.9436   1.9437   1.9468   1.9520   1.9568   1.9584   1.9592
     2.0181   2.0192   2.0799   2.0805   2.0897   2.0930   2.0938   2.0979
     2.1216   2.1218   2.1340   2.1362   2.1457   2.1652   2.1765   2.1771
     2.2010   2.2040   2.2246   2.2436   2.2483   2.2577   2.2584   2.2619
     2.2621   2.2639   2.2675   2.2710   2.2757   2.2792   2.3019   2.3174
     2.3454   2.3479   2.3493   2.3530   2.3604   2.3628   2.3671   2.3918
     2.3969   2.4034   2.4159   2.4405   2.4423   2.4591   2.4655   2.4667
     2.4769   2.4795   2.5104   2.5188   2.5242   2.5248   2.5511   2.5517
     2.5734   2.5797   2.5804   2.5985   2.5997   2.6221   2.6226   2.6235
     2.6270   2.6298   2.6429   2.6430   2.6476   2.6540   2.6571   2.6746
     2.7118   2.7184   2.7186   2.7215   2.7691   2.7694   2.7797   2.7814
     2.8120   2.8247   2.8252   2.8309   2.8312   2.8456   2.8486   2.8754
     2.8761   2.8762   2.8858   2.8860   2.8973   2.8992   2.9004   2.9007
     2.9025   2.9098   2.9100   2.9108   2.9133   2.9278   2.9285   2.9434
     2.9440   2.9494   2.9545   2.9546   2.9660   2.9820   2.9867   2.9928
     2.9932   3.0103   3.0416   3.0418   3.0525   3.0739   3.0742   3.2283
     3.2329   3.3417   3.3418   3.4437   3.4441   3.5468   3.7685   3.7708
     4.1477   4.1592   4.2525   4.2528   4.2658   4.5284   4.6382   4.6441
     4.6605   4.6606   4.7857   5.1063   5.1339   5.1348   5.5783   5.6185
     5.6382   5.6841   5.8709   5.8899   5.8916   6.0217   6.0281   6.1129
     6.1854   6.5578   6.6359   6.6379   6.8111   6.8754   6.9579   7.0145
     7.0153   7.3046   7.3805   7.3941   7.5650   7.7691   7.8412   7.9307
     8.4332   8.4367   8.4669   8.5401   8.7174   9.0415   9.0959   9.1272
     9.2015   9.2885   9.3243   9.4411   9.4503   9.6159   9.6488   9.6573
     9.7776   9.8342  10.0098  10.1151  10.1429  10.3272  10.3887  10.4625
    10.4957  10.5714  10.6529  10.7710  10.8072  11.0341  11.1300  11.1454
    11.2461  11.2762  11.4108  11.4409  11.4461  11.5864  11.6205  11.6713
    11.6837  11.7697  11.8140  11.8383  11.9809  12.0764  12.1176  12.1720
    12.2631  12.3369  12.3642  12.3948  12.4568  12.4763  12.5417  12.5914
    12.6885  12.7071  12.7946  12.8998  12.9397  12.9544  13.1408  13.2382
    13.2626  13.2822  13.3614  13.3898  13.4594  13.4874  13.5285  13.6184
    13.6475  13.6647

          k =-0.5000-0.5774 0.0000 ( 61343 PWs)   bands (ev):

  -107.8759-107.8742-107.8735-107.8714-107.8699-107.8699-107.8696-107.8689
  -107.8686-107.8681-107.8680-107.8676-107.8674-107.8666-107.8664-107.8660
  -107.8657-107.8648-107.8635-107.8632-107.8628-107.8608-107.8603-107.8597
  -107.8596-107.8590-107.8587-107.8555-107.8543-107.8539-107.8517-107.8512
  -107.8507-107.8504-107.8502-107.8496-107.6364-107.6348-107.6340-107.6325
  -107.6311-107.6310-107.6297-107.6280-107.6277-107.6167-107.6152-107.6152
  -107.6123-107.6122-107.6112-107.6112-107.6111-107.6108 -65.3276 -65.3232
   -65.3227 -65.3219 -65.3215 -65.3206 -65.3203 -65.3189 -65.3172 -65.3156
   -65.3154 -65.3143 -65.3115 -65.3097 -65.3093 -65.3092 -65.3090 -65.3065
   -65.3035 -65.3029 -65.3028 -65.3026 -65.3023 -65.3009 -65.3007 -65.2998
   -65.2989 -65.2987 -65.2961 -65.2957 -65.2908 -65.2905 -65.2900 -65.2893
   -65.2868 -65.2866 -65.2859 -65.2856 -65.2854 -65.2825 -65.2820 -65.2817
   -65.2808 -65.2801 -65.2797 -65.2795 -65.2786 -65.2758 -65.2755 -65.2754
   -65.2752 -65.2752 -65.2750 -65.2738 -65.2735 -65.2732 -65.2729 -65.2716
   -65.2713 -65.2700 -65.2698 -65.2696 -65.2694 -65.2690 -65.2673 -65.2662
   -65.2660 -65.2659 -65.2656 -65.2653 -65.2648 -65.2644 -65.2642 -65.2640
   -65.2638 -65.2626 -65.2624 -65.2616 -65.2611 -65.2609 -65.2605 -65.2592
   -65.2589 -65.2582 -65.2581 -65.2580 -65.2579 -65.2578 -65.2577 -65.2575
   -65.2557 -65.2554 -65.2550 -65.2532 -65.2530 -65.2522 -65.2520 -65.2520
   -65.2512 -65.2510 -65.2489 -65.2478 -65.2478 -65.2469 -65.2433 -65.2413
   -65.2413 -65.2376 -65.1028 -65.1022 -65.0996 -65.0930 -65.0895 -65.0886
   -65.0856 -65.0856 -65.0828 -65.0762 -65.0723 -65.0722 -65.0697 -65.0679
   -65.0667 -65.0664 -65.0615 -65.0607 -65.0601 -65.0595 -65.0534 -65.0527
   -65.0507 -65.0498 -65.0498 -65.0489 -65.0487 -65.0447 -65.0441 -65.0440
   -65.0432 -65.0432 -65.0366 -65.0320 -65.0320 -65.0280 -65.0119 -65.0104
   -65.0096 -65.0083 -65.0069 -65.0068 -65.0051 -65.0034 -65.0032 -64.9888
   -64.9875 -64.9874 -64.9847 -64.9846 -64.9837 -64.9837 -64.9836 -64.9833
   -12.5411  -9.8064  -9.8039  -6.2157  -6.2073  -4.2374  -3.5086  -2.9030
    -2.7024  -2.7023  -2.6433  -2.3045  -2.1285  -2.1282  -1.9813  -1.7277
    -1.6873  -1.2715  -1.2688  -0.9011  -0.6916  -0.6915  -0.4342  -0.3410
    -0.3402  -0.2974  -0.2696  -0.1007  -0.1006  -0.0911   0.0739   0.0747
     0.0939   0.0940   0.1103   0.1600   0.1721   0.1722   0.1894   0.2227
     0.2629   0.2881   0.2917   0.2949   0.2950   0.3684   0.3720   0.4329
     0.4334   0.4451   0.4560   0.4835   0.4836   0.4864   0.5049   0.5058
     0.5730   0.5732   0.5986   0.6004   0.6306   0.6307   0.6557   0.6649
     0.6651   0.7333   0.7333   0.7601   0.7823   0.7930   0.7932   0.8687
     0.8688   0.9198   0.9393   0.9395   0.9685   0.9686   1.0260   1.0352
     1.0354   1.0507   1.0508   1.0652   1.1034   1.1310   1.1310   1.1733
     1.1736   1.2007   1.2059   1.2064   1.2077   1.2240   1.2242   1.2836
     1.2839   1.2868   1.2868   1.2900   1.3025   1.3194   1.3205   1.3336
     1.3341   1.3615   1.3626   1.3853   1.3870   1.3877   1.4068   1.4311
     1.4719   1.4800   1.4802   1.4805   1.4814   1.5103   1.5293   1.5331
     1.5339   1.5709   1.5711   1.5720   1.5748   1.5810   1.6040   1.6253
     1.6253   1.6422   1.6423   1.6685   1.6699   1.6793   1.6794   1.6916
     1.6923   1.7068   1.7069   1.7244   1.7247   1.7394   1.7480   1.7717
     1.7830   1.7861   1.7905   1.8080   1.8103   1.8108   1.8177   1.8259
     1.8266   1.8360   1.8361   1.8501   1.8535   1.8551   1.8555   1.8591
     1.8777   1.8831   1.9062   1.9221   1.9241   1.9314   1.9349   1.9357
     1.9428   1.9436   1.9437   1.9468   1.9520   1.9568   1.9584   1.9592
     2.0181   2.0192   2.0799   2.0805   2.0897   2.0930   2.0938   2.0979
     2.1216   2.1218   2.1340   2.1362   2.1457   2.1652   2.1765   2.1771
     2.2010   2.2040   2.2246   2.2436   2.2483   2.2577   2.2584   2.2619
     2.2621   2.2639   2.2675   2.2710   2.2757   2.2792   2.3019   2.3174
     2.3454   2.3479   2.3493   2.3530   2.3604   2.3628   2.3671   2.3918
     2.3969   2.4034   2.4159   2.4405   2.4423   2.4591   2.4655   2.4667
     2.4769   2.4795   2.5104   2.5188   2.5242   2.5248   2.5511   2.5517
     2.5734   2.5797   2.5803   2.5985   2.5997   2.6221   2.6226   2.6235
     2.6270   2.6298   2.6429   2.6430   2.6476   2.6540   2.6571   2.6746
     2.7118   2.7184   2.7186   2.7215   2.7691   2.7694   2.7797   2.7814
     2.8120   2.8247   2.8252   2.8309   2.8312   2.8456   2.8486   2.8754
     2.8761   2.8762   2.8858   2.8860   2.8973   2.8992   2.9004   2.9007
     2.9025   2.9098   2.9100   2.9108   2.9133   2.9278   2.9285   2.9434
     2.9440   2.9494   2.9545   2.9546   2.9660   2.9820   2.9867   2.9928
     2.9932   3.0103   3.0416   3.0418   3.0525   3.0739   3.0742   3.2283
     3.2329   3.3417   3.3418   3.4437   3.4441   3.5468   3.7685   3.7708
     4.1477   4.1592   4.2525   4.2528   4.2658   4.5284   4.6382   4.6441
     4.6605   4.6606   4.7857   5.1063   5.1339   5.1348   5.5783   5.6185
     5.6382   5.6841   5.8709   5.8899   5.8916   6.0217   6.0281   6.1129
     6.1854   6.5578   6.6359   6.6379   6.8111   6.8754   6.9579   7.0145
     7.0153   7.3046   7.3806   7.3940   7.5650   7.7691   7.8412   7.9307
     8.4332   8.4367   8.4668   8.5401   8.7174   9.0416   9.0959   9.1272
     9.2015   9.2885   9.3242   9.4411   9.4503   9.6160   9.6488   9.6573
     9.7776   9.8342  10.0098  10.1151  10.1429  10.3272  10.3887  10.4625
    10.4957  10.5714  10.6529  10.7710  10.8072  11.0341  11.1300  11.1454
    11.2460  11.2762  11.4108  11.4409  11.4461  11.5864  11.6206  11.6713
    11.6837  11.7697  11.8140  11.8383  11.9809  12.0764  12.1177  12.1719
    12.2632  12.3369  12.3642  12.3948  12.4568  12.4763  12.5417  12.5913
    12.6885  12.7071  12.7946  12.8998  12.9397  12.9544  13.1408  13.2383
    13.2625  13.2821  13.3614  13.3898  13.4594  13.4874  13.5287  13.6184
    13.6474  13.6645

     the Fermi energy is     4.5709 ev

!    total energy              =  -21903.76876506 Ry
     Harris-Foulkes estimate   =  -21903.76876509 Ry
     estimated scf accuracy    <          4.2E-09 Ry

     The total energy is the sum of the following terms:

     one-electron contribution = -206360.92681784 Ry
     hartree contribution      =  103381.78415779 Ry
     xc contribution           =   -2143.17051478 Ry
     ewald contribution        =   83218.59697709 Ry
     smearing contrib. (-TS)   =      -0.05256732 Ry

     convergence has been achieved in  36 iterations
 
     init_run     :    181.08s CPU    185.13s WALL (       1 calls)
     electrons    :  25200.47s CPU  25560.66s WALL (       1 calls)

     Called by init_run:
     wfcinit      :    166.53s CPU    169.19s WALL (       1 calls)
     potinit      :      9.70s CPU     10.04s WALL (       1 calls)
     hinit0       :      1.76s CPU      1.79s WALL (       1 calls)

     Called by electrons:
     c_bands      :  23364.76s CPU  23654.64s WALL (      36 calls)
     sum_band     :   1537.70s CPU   1576.84s WALL (      36 calls)
     v_of_rho     :    249.28s CPU    259.25s WALL (      37 calls)
     newd         :     46.61s CPU     68.56s WALL (      37 calls)
     mix_rho      :      7.91s CPU      8.07s WALL (      36 calls)

     Called by c_bands:
     init_us_2    :     32.33s CPU     33.41s WALL (     730 calls)
     cegterg      :  23235.66s CPU  23516.93s WALL (     361 calls)

     Called by sum_band:
     sum_band:bec :      3.26s CPU      3.27s WALL (     360 calls)
     addusdens    :     45.38s CPU     67.41s WALL (      36 calls)

     Called by *egterg:
     h_psi        :   8110.05s CPU   8215.46s WALL (    1976 calls)
     s_psi        :    575.78s CPU    576.32s WALL (    1976 calls)
     g_psi        :     11.27s CPU     11.30s WALL (    1605 calls)
     cdiaghg      :  11030.57s CPU  11103.19s WALL (    1966 calls)

     Called by h_psi:
     h_psi:pot    :   8098.23s CPU   8184.60s WALL (    1976 calls)
     h_psi:calbec :    703.84s CPU    709.22s WALL (    1976 calls)
     vloc_psi     :   6817.69s CPU   6897.35s WALL (    1976 calls)
     add_vuspsi   :    576.67s CPU    578.01s WALL (    1976 calls)

     General routines
     calbec       :    938.70s CPU    944.63s WALL (    2336 calls)
     fft          :    213.87s CPU    216.00s WALL (    2330 calls)
     ffts         :      2.38s CPU      2.41s WALL (      73 calls)
     fftw         :   7578.39s CPU   7668.57s WALL ( 1446998 calls)
     interpolate  :      3.99s CPU      4.02s WALL (      37 calls)
 
     Parallel routines
     fft_scatt_xy :    329.48s CPU    331.74s WALL ( 1449401 calls)
     fft_scatt_yz :   6348.13s CPU   6433.91s WALL ( 1449401 calls)
 
     PWSCF        :     7h 3m CPU        3h 7m WALL

       9h
 
   This run was terminated on:  10:54:54  16Nov2019            

=------------------------------------------------------------------------------=
   JOB DONE.
=------------------------------------------------------------------------------=
