
     Program PWSCF v.6.3MaX starts on 25Nov2019 at 22:25:16 

     This program is part of the open-source Quantum ESPRESSO suite
     for quantum simulation of materials; please cite
         "P. Giannozzi et al., J. Phys.:Condens. Matter 21 395502 (2009);
         "P. Giannozzi et al., J. Phys.:Condens. Matter 29 465901 (2017);
          URL http://www.quantum-espresso.org", 
     in publications or presentations arising from this work. More details at
     http://www.quantum-espresso.org/quote

     Parallel version (MPI), running on    16 processors

     MPI processes distributed on     2 nodes
     R & G space division:  proc/nbgrp/npool/nimage =      16
     Waiting for input...
     Reading input from standard input

     Current dimensions of program PWSCF are:
     Max number of different atomic species (ntypx) = 10
     Max number of k-points (npk) =  40000
     Max angular momentum in pseudopotentials (lmaxx) =  3
     Message from routine iosys:
     minimal I/O required, wf_collect reset to FALSE

     IMPORTANT: XC functional enforced from input :
     Exchange-correlation      = VDW-DF ( 1  4  4  0 1 0)
     Any further DFT definition will be discarded
     Please, verify this is what you really want


     Subspace diagonalization in iterative solution of the eigenvalue problem:
     one sub-group per band group will be used
     scalapack distributed-memory algorithm (size of sub-group:  2*  2 procs)

 
     Parallelization info
     --------------------
     sticks:   dense  smooth     PW     G-vecs:    dense   smooth      PW
     Min         565     189     51               159513    30701    4383
     Max         566     190     52               159526    30710    4400
     Sum        9055    3037    823              2552337   491295   70261
 


     bravais-lattice index     =            0
     lattice parameter (alat)  =      14.8058  a.u.
     unit-cell volume          =   10282.4791 (a.u.)^3
     number of atoms/cell      =           66
     number of atomic types    =            3
     number of electrons       =      1056.00
     number of Kohn-Sham states=          634
     kinetic-energy cutoff     =      50.0000  Ry
     charge density cutoff     =     600.0000  Ry
     convergence threshold     =      1.0E-08
     mixing beta               =       0.3000
     number of iterations used =            8  plain     mixing
     Exchange-correlation      = VDW-DF ( 1  4  4  0 1 0)

     celldm(1)=  14.805786  celldm(2)=   0.000000  celldm(3)=   0.000000
     celldm(4)=   0.000000  celldm(5)=   0.000000  celldm(6)=   0.000000

     crystal axes: (cart. coord. in units of alat)
               a(1) = (   1.000000   0.000000   0.000000 )  
               a(2) = (   0.500000   0.866025   0.000000 )  
               a(3) = (   0.000000   0.000000   3.658245 )  

     reciprocal axes: (cart. coord. in units 2 pi/alat)
               b(1) = (  1.000000 -0.577350  0.000000 )  
               b(2) = (  0.000000  1.154701  0.000000 )  
               b(3) = (  0.000000  0.000000  0.273355 )  


     PseudoPot. # 1 for Cu read from file:
     /deac/thonhauserGrp/chakrad/calculations/atomandmolecule-qe6.2.1-i2012-C6modif/all_pbe_UPF_v1.5/cu_pbe_v1.2.uspp.F.UPF
     MD5 check sum: 6e991ff952a84172a2a52a1c1e996048
     Pseudo is Ultrasoft + core correction, Zval = 19.0
     Generated by new atomic code, or converted to UPF format
     Using radial grid of  867 points,  6 beta functions with: 
                l(1) =   0
                l(2) =   0
                l(3) =   1
                l(4) =   1
                l(5) =   2
                l(6) =   2
     Q(r) pseudized with  8 coefficients,  rinner =    1.150   1.150   1.150
                                                       1.150   1.150

     PseudoPot. # 2 for C  read from file:
     /deac/thonhauserGrp/chakrad/calculations/atomandmolecule-qe6.2.1-i2012-C6modif/all_pbe_UPF_v1.5/c_pbe_v1.2.uspp.F.UPF
     MD5 check sum: d1aef80898a10debaa0f26306b886e00
     Pseudo is Ultrasoft + core correction, Zval =  4.0
     Generated by new atomic code, or converted to UPF format
     Using radial grid of  721 points,  4 beta functions with: 
                l(1) =   0
                l(2) =   0
                l(3) =   1
                l(4) =   1
     Q(r) pseudized with  8 coefficients,  rinner =    1.100   1.100   1.100


     PseudoPot. # 3 for H  read from file:
     /deac/thonhauserGrp/chakrad/calculations/atomandmolecule-qe6.2.1-i2012-C6modif/all_pbe_UPF_v1.5/h_pbe_v1.4.uspp.F.UPF
     MD5 check sum: 761ae9a214b05c3daf00ab9f6b793d6f
     Pseudo is Ultrasoft, Zval =  1.0
     Generated by new atomic code, or converted to UPF format
     Using radial grid of  615 points,  2 beta functions with: 
                l(1) =   0
                l(2) =   0
     Q(r) pseudized with  8 coefficients,  rinner =    0.700

     vdW kernel table read from file vdW_kernel_table
     MD5 check sum: cc9485f6209b1096fbef62427c856dab

     atomic species   valence    mass     pseudopotential
        Cu            19.00     1.00000     Cu( 1.00)
        C              4.00     1.00000     C ( 1.00)
        H              1.00     1.00000     H ( 1.00)

     No symmetry found



   Cartesian axes

     site n.     atom                  positions (alat units)
         1           Cu  tau(   1) = (   0.1666667   0.0962250   0.2552686  )
         2           Cu  tau(   2) = (   0.5000000   0.0962250   0.2552686  )
         3           Cu  tau(   3) = (   0.8333333   0.0962250   0.2552686  )
         4           Cu  tau(   4) = (   0.3333333   0.3849002   0.2552686  )
         5           Cu  tau(   5) = (   0.6666667   0.3849002   0.2552686  )
         6           Cu  tau(   6) = (   1.0000000   0.3849002   0.2552686  )
         7           Cu  tau(   7) = (   0.5000000   0.6735753   0.2552686  )
         8           Cu  tau(   8) = (   0.8333333   0.6735753   0.2552686  )
         9           Cu  tau(   9) = (   1.1666667   0.6735753   0.2552686  )
        10           Cu  tau(  10) = (   0.0000000   0.1924501   0.5274341  )
        11           Cu  tau(  11) = (   0.3333333   0.1924501   0.5274341  )
        12           Cu  tau(  12) = (   0.6666667   0.1924501   0.5274341  )
        13           Cu  tau(  13) = (   0.1666667   0.4811252   0.5274341  )
        14           Cu  tau(  14) = (   0.5000000   0.4811252   0.5274341  )
        15           Cu  tau(  15) = (   0.8333333   0.4811252   0.5274341  )
        16           Cu  tau(  16) = (   0.3333333   0.7698004   0.5274341  )
        17           Cu  tau(  17) = (   0.6666667   0.7698004   0.5274341  )
        18           Cu  tau(  18) = (   1.0000000   0.7698004   0.5274341  )
        19           Cu  tau(  19) = (   0.0000000   0.0000000   0.7995997  )
        20           Cu  tau(  20) = (   0.3333333   0.0000000   0.7995997  )
        21           Cu  tau(  21) = (   0.6666667   0.0000000   0.7995997  )
        22           Cu  tau(  22) = (   0.1666667   0.2886751   0.7995997  )
        23           Cu  tau(  23) = (   0.5000000   0.2886751   0.7995997  )
        24           Cu  tau(  24) = (   0.8333333   0.2886751   0.7995997  )
        25           Cu  tau(  25) = (   0.3333333   0.5773503   0.7995997  )
        26           Cu  tau(  26) = (   0.6666667   0.5773503   0.7995997  )
        27           Cu  tau(  27) = (   1.0000000   0.5773503   0.7995997  )
        28           Cu  tau(  28) = (   0.1666659   0.0962246   1.0691130  )
        29           Cu  tau(  29) = (   0.5000000   0.0962241   1.0691104  )
        30           Cu  tau(  30) = (   0.8333341   0.0962246   1.0691130  )
        31           Cu  tau(  31) = (   0.3333325   0.3849006   1.0691104  )
        32           Cu  tau(  32) = (   0.6666675   0.3849006   1.0691104  )
        33           Cu  tau(  33) = (   1.0000000   0.3849003   1.0691143  )
        34           Cu  tau(  34) = (   0.5000000   0.6735762   1.0691130  )
        35           Cu  tau(  35) = (   0.8333334   0.6735753   1.0691143  )
        36           Cu  tau(  36) = (   1.1666666   0.6735753   1.0691143  )
        37           Cu  tau(  37) = (   0.0000000   0.1924486   1.3387540  )
        38           Cu  tau(  38) = (   0.3333330   0.1924499   1.3387465  )
        39           Cu  tau(  39) = (   0.6666670   0.1924499   1.3387465  )
        40           Cu  tau(  40) = (   0.1666676   0.4811247   1.3387504  )
        41           Cu  tau(  41) = (   0.5000000   0.4811256   1.3387465  )
        42           Cu  tau(  42) = (   0.8333324   0.4811247   1.3387504  )
        43           Cu  tau(  43) = (   0.3333346   0.7698011   1.3387540  )
        44           Cu  tau(  44) = (   0.6666654   0.7698011   1.3387540  )
        45           Cu  tau(  45) = (   1.0000000   0.7698014   1.3387504  )
        46           Cu  tau(  46) = (   0.0000000   0.0000000   1.6083750  )
        47           Cu  tau(  47) = (   0.3333333   0.0000005   1.6083624  )
        48           Cu  tau(  48) = (   0.6666667   0.0000005   1.6083624  )
        49           Cu  tau(  49) = (   0.1666671   0.2886748   1.6083624  )
        50           Cu  tau(  50) = (   0.5000000   0.2886751   1.6083553  )
        51           Cu  tau(  51) = (   0.8333329   0.2886748   1.6083624  )
        52           Cu  tau(  52) = (   0.3333338   0.5773500   1.6083624  )
        53           Cu  tau(  53) = (   0.6666662   0.5773500   1.6083624  )
        54           Cu  tau(  54) = (   1.0000000   0.5773503   1.6083570  )
        55           C   tau(  55) = (   0.6567407   0.3959883   1.9337854  )
        56           C   tau(  56) = (   0.5046394   0.3028152   1.9337853  )
        57           C   tau(  57) = (   0.3478975   0.3879497   1.9337854  )
        58           C   tau(  58) = (   0.3432593   0.5662630   1.9337854  )
        59           C   tau(  59) = (   0.4953606   0.6594361   1.9337853  )
        60           C   tau(  60) = (   0.6521025   0.5743016   1.9337854  )
        61           H   tau(  61) = (   0.7789959   0.3295665   1.9338636  )
        62           H   tau(  62) = (   0.5082587   0.1637263   1.9338637  )
        63           H   tau(  63) = (   0.2292624   0.3152577   1.9338636  )
        64           H   tau(  64) = (   0.2210041   0.6326847   1.9338636  )
        65           H   tau(  65) = (   0.4917413   0.7985249   1.9338637  )
        66           H   tau(  66) = (   0.7707376   0.6469936   1.9338636  )

     number of k points=    10  gaussian smearing, width (Ry)=  0.0200
                       cart. coord. in units 2pi/alat
        k(    1) = (   0.0000000   0.0000000   0.0000000), wk =   0.1250000
        k(    2) = (   0.0000000   0.2886751   0.0000000), wk =   0.2500000
        k(    3) = (   0.0000000  -0.5773503   0.0000000), wk =   0.1250000
        k(    4) = (   0.2500000  -0.7216878   0.0000000), wk =   0.2500000
        k(    5) = (  -0.2500000   0.1443376   0.0000000), wk =   0.2500000
        k(    6) = (   0.2500000   0.1443376   0.0000000), wk =   0.2500000
        k(    7) = (   0.5000000  -0.2886751   0.0000000), wk =   0.1250000
        k(    8) = (  -0.5000000  -0.2886751   0.0000000), wk =   0.1250000
        k(    9) = (  -0.2500000  -0.7216878   0.0000000), wk =   0.2500000
        k(   10) = (  -0.5000000  -0.5773503   0.0000000), wk =   0.2500000

     Dense  grid:  2552337 G-vectors     FFT dimensions: ( 120, 120, 432)

     Smooth grid:   491295 G-vectors     FFT dimensions: (  72,  72, 243)

     Estimated max dynamical RAM per process >       1.14 GB

     Estimated total dynamical RAM >      18.26 GB

     Initial potential from superposition of free atoms
     Check: negative starting charge=   -0.000853

     starting charge 1001.99960, renormalised to 1056.00000

     negative rho (up, down):  8.994E-04 0.000E+00


     %%%%%%%%%%%%%%%%%%%%%%%%%%%%%%%%%%%%%%%%%%%%%%%%%%%%%%%%%%%%%%%%%%%%%%%%
     %                                                                      %
     % You are using vdW-DF, which was implemented by the Thonhauser group. %
     % Please cite the following two papers that made this development      %
     % possible and the two reviews that describe the various versions:     %
     %                                                                      %
     %   T. Thonhauser et al., PRL 115, 136402 (2015).                      %
     %   T. Thonhauser et al., PRB 76, 125112 (2007).                       %
     %   K. Berland et al., Rep. Prog. Phys. 78, 066501 (2015).             %
     %   D.C. Langreth et al., J. Phys.: Condens. Matter 21, 084203 (2009). %
     %                                                                      %
     %                                                                      %
     % If you are calculating the stress with vdW-DF, please also cite:     %
     %                                                                      %
     %   R. Sabatini et al., J. Phys.: Condens. Matter 24, 424209 (2012).   %
     %                                                                      %
     %%%%%%%%%%%%%%%%%%%%%%%%%%%%%%%%%%%%%%%%%%%%%%%%%%%%%%%%%%%%%%%%%%%%%%%%


     Starting wfcs are  732 randomized atomic wfcs

     total cpu time spent up to now is       79.9 secs

     Self-consistent Calculation

     iteration #  1     ecut=    50.00 Ry     beta= 0.30
     Davidson diagonalization with overlap
     ethr =  1.00E-02,  avg # of iterations =  6.0

     negative rho (up, down):  4.548E-04 0.000E+00

     total cpu time spent up to now is     1476.6 secs

     total energy              =  -18750.30762112 Ry
     Harris-Foulkes estimate   =  -22014.80863611 Ry
     estimated scf accuracy    <    6451.08392998 Ry

     iteration #  2     ecut=    50.00 Ry     beta= 0.30
     Davidson diagonalization with overlap
     c_bands:  1 eigenvalues not converged
     ethr =  1.00E-02,  avg # of iterations = 18.8

     negative rho (up, down):  5.015E-04 0.000E+00

     total cpu time spent up to now is     4404.8 secs

     total energy              =  -19205.91078710 Ry
     Harris-Foulkes estimate   =  -39197.89096738 Ry
     estimated scf accuracy    <  275731.94927314 Ry

     iteration #  3     ecut=    50.00 Ry     beta= 0.30
     Davidson diagonalization with overlap
     ethr =  1.00E-02,  avg # of iterations =  8.0

     negative rho (up, down):  5.719E-04 0.000E+00

     total cpu time spent up to now is     6104.9 secs

     total energy              =  -21494.60586115 Ry
     Harris-Foulkes estimate   =  -23610.70172427 Ry
     estimated scf accuracy    <   58223.68051443 Ry

     iteration #  4     ecut=    50.00 Ry     beta= 0.30
     Davidson diagonalization with overlap
     ethr =  1.00E-02,  avg # of iterations =  7.3

     negative rho (up, down):  7.111E-04 0.000E+00

     total cpu time spent up to now is     7764.0 secs

     total energy              =  -21640.14748964 Ry
     Harris-Foulkes estimate   =  -22160.01869493 Ry
     estimated scf accuracy    <   16065.27357548 Ry

     iteration #  5     ecut=    50.00 Ry     beta= 0.30
     Davidson diagonalization with overlap
     ethr =  1.00E-02,  avg # of iterations =  6.0

     negative rho (up, down):  7.809E-04 0.000E+00

     total cpu time spent up to now is     8975.1 secs

     total energy              =  -21801.99940321 Ry
     Harris-Foulkes estimate   =  -22224.92181916 Ry
     estimated scf accuracy    <    8456.16431424 Ry

     iteration #  6     ecut=    50.00 Ry     beta= 0.30
     Davidson diagonalization with overlap
     ethr =  1.00E-02,  avg # of iterations =  7.0

     negative rho (up, down):  9.147E-04 0.000E+00

     total cpu time spent up to now is    10132.4 secs

     total energy              =  -21901.68501350 Ry
     Harris-Foulkes estimate   =  -21974.86350119 Ry
     estimated scf accuracy    <    2930.48461734 Ry

     iteration #  7     ecut=    50.00 Ry     beta= 0.30
     Davidson diagonalization with overlap
     ethr =  1.00E-02,  avg # of iterations =  2.7

     negative rho (up, down):  1.078E-03 0.000E+00

     total cpu time spent up to now is    10396.4 secs

     total energy              =  -21912.67509360 Ry
     Harris-Foulkes estimate   =  -21941.28664095 Ry
     estimated scf accuracy    <     294.71954504 Ry

     iteration #  8     ecut=    50.00 Ry     beta= 0.30
     Davidson diagonalization with overlap
     ethr =  1.00E-02,  avg # of iterations =  3.0

     negative rho (up, down):  1.203E-03 0.000E+00

     total cpu time spent up to now is    10674.6 secs

     total energy              =  -21916.39065392 Ry
     Harris-Foulkes estimate   =  -21921.27800646 Ry
     estimated scf accuracy    <      97.34480221 Ry

     iteration #  9     ecut=    50.00 Ry     beta= 0.30
     Davidson diagonalization with overlap
     ethr =  9.22E-03,  avg # of iterations =  1.0

     negative rho (up, down):  1.316E-03 0.000E+00

     total cpu time spent up to now is    10863.0 secs

     total energy              =  -21909.99454916 Ry
     Harris-Foulkes estimate   =  -21917.43370553 Ry
     estimated scf accuracy    <     113.00257803 Ry

     iteration # 10     ecut=    50.00 Ry     beta= 0.30
     Davidson diagonalization with overlap
     ethr =  9.22E-03,  avg # of iterations =  1.0

     negative rho (up, down):  1.677E-03 0.000E+00

     total cpu time spent up to now is    11056.8 secs

     total energy              =  -21893.38386831 Ry
     Harris-Foulkes estimate   =  -21912.05058601 Ry
     estimated scf accuracy    <      86.16776736 Ry

     iteration # 11     ecut=    50.00 Ry     beta= 0.30
     Davidson diagonalization with overlap
     ethr =  8.16E-03,  avg # of iterations =  3.6

     negative rho (up, down):  1.373E-04 0.000E+00

     total cpu time spent up to now is    11467.0 secs

     total energy              =  -21899.87086390 Ry
     Harris-Foulkes estimate   =  -21924.79994739 Ry
     estimated scf accuracy    <     811.57044492 Ry

     iteration # 12     ecut=    50.00 Ry     beta= 0.30
     Davidson diagonalization with overlap
     ethr =  8.16E-03,  avg # of iterations =  1.7

     negative rho (up, down):  1.050E-04 0.000E+00

     total cpu time spent up to now is    11684.2 secs

     total energy              =  -21899.94442681 Ry
     Harris-Foulkes estimate   =  -21909.74200519 Ry
     estimated scf accuracy    <     139.09430100 Ry

     iteration # 13     ecut=    50.00 Ry     beta= 0.30
     Davidson diagonalization with overlap
     ethr =  8.16E-03,  avg # of iterations =  2.0

     negative rho (up, down):  1.220E-04 0.000E+00

     total cpu time spent up to now is    11896.5 secs

     total energy              =  -21902.46156629 Ry
     Harris-Foulkes estimate   =  -21904.69895534 Ry
     estimated scf accuracy    <      15.43253976 Ry

     iteration # 14     ecut=    50.00 Ry     beta= 0.30
     Davidson diagonalization with overlap
     ethr =  1.46E-03,  avg # of iterations =  5.0

     negative rho (up, down):  1.123E-04 0.000E+00

     total cpu time spent up to now is    12246.0 secs

     total energy              =  -21904.44356270 Ry
     Harris-Foulkes estimate   =  -21904.80944295 Ry
     estimated scf accuracy    <      14.83774526 Ry

     iteration # 15     ecut=    50.00 Ry     beta= 0.30
     Davidson diagonalization with overlap
     ethr =  1.41E-03,  avg # of iterations =  1.0

     negative rho (up, down):  1.334E-04 0.000E+00

     total cpu time spent up to now is    12424.8 secs

     total energy              =  -21904.09918612 Ry
     Harris-Foulkes estimate   =  -21904.64880437 Ry
     estimated scf accuracy    <      12.18400331 Ry

     iteration # 16     ecut=    50.00 Ry     beta= 0.30
     Davidson diagonalization with overlap
     ethr =  1.15E-03,  avg # of iterations =  1.0

     negative rho (up, down):  1.517E-04 0.000E+00

     total cpu time spent up to now is    12596.3 secs

     total energy              =  -21904.01566027 Ry
     Harris-Foulkes estimate   =  -21904.21830511 Ry
     estimated scf accuracy    <       8.46256028 Ry

     iteration # 17     ecut=    50.00 Ry     beta= 0.30
     Davidson diagonalization with overlap
     ethr =  8.01E-04,  avg # of iterations =  1.0

     negative rho (up, down):  2.192E-04 0.000E+00

     total cpu time spent up to now is    12770.7 secs

     total energy              =  -21903.83492985 Ry
     Harris-Foulkes estimate   =  -21904.06009288 Ry
     estimated scf accuracy    <       4.70792370 Ry

     iteration # 18     ecut=    50.00 Ry     beta= 0.30
     Davidson diagonalization with overlap
     ethr =  4.46E-04,  avg # of iterations =  6.5

     negative rho (up, down):  3.238E-04 0.000E+00

     total cpu time spent up to now is    13153.9 secs

     total energy              =  -21903.73832283 Ry
     Harris-Foulkes estimate   =  -21903.88411258 Ry
     estimated scf accuracy    <       2.19576576 Ry

     iteration # 19     ecut=    50.00 Ry     beta= 0.30
     Davidson diagonalization with overlap
     ethr =  2.08E-04,  avg # of iterations =  6.0

     negative rho (up, down):  3.821E-04 0.000E+00

     total cpu time spent up to now is    13502.4 secs

     total energy              =  -21903.76246877 Ry
     Harris-Foulkes estimate   =  -21903.78551242 Ry
     estimated scf accuracy    <       0.53543555 Ry

     iteration # 20     ecut=    50.00 Ry     beta= 0.30
     Davidson diagonalization with overlap
     ethr =  5.07E-05,  avg # of iterations =  7.7

     negative rho (up, down):  1.520E-03 0.000E+00

     total cpu time spent up to now is    13928.4 secs

     total energy              =  -21903.64382126 Ry
     Harris-Foulkes estimate   =  -21903.77253882 Ry
     estimated scf accuracy    <       0.73400039 Ry

     iteration # 21     ecut=    50.00 Ry     beta= 0.30
     Davidson diagonalization with overlap
     ethr =  5.07E-05,  avg # of iterations =  6.3

     negative rho (up, down):  8.974E-04 0.000E+00

     total cpu time spent up to now is    14356.9 secs

     total energy              =  -21903.62999332 Ry
     Harris-Foulkes estimate   =  -21903.78263432 Ry
     estimated scf accuracy    <       1.72615217 Ry

     iteration # 22     ecut=    50.00 Ry     beta= 0.30
     Davidson diagonalization with overlap
     ethr =  5.07E-05,  avg # of iterations =  4.0

     negative rho (up, down):  1.105E-03 0.000E+00

     total cpu time spent up to now is    14669.4 secs

     total energy              =  -21903.69936865 Ry
     Harris-Foulkes estimate   =  -21903.73746702 Ry
     estimated scf accuracy    <       0.29930725 Ry

     iteration # 23     ecut=    50.00 Ry     beta= 0.30
     Davidson diagonalization with overlap
     ethr =  2.83E-05,  avg # of iterations =  2.9

     negative rho (up, down):  1.160E-03 0.000E+00

     total cpu time spent up to now is    14922.7 secs

     total energy              =  -21903.71651793 Ry
     Harris-Foulkes estimate   =  -21903.71936745 Ry
     estimated scf accuracy    <       0.01811589 Ry

     iteration # 24     ecut=    50.00 Ry     beta= 0.30
     Davidson diagonalization with overlap
     ethr =  1.72E-06,  avg # of iterations = 10.2

     negative rho (up, down):  1.401E-03 0.000E+00

     total cpu time spent up to now is    15511.1 secs

     total energy              =  -21903.71717142 Ry
     Harris-Foulkes estimate   =  -21903.71874511 Ry
     estimated scf accuracy    <       0.01587138 Ry

     iteration # 25     ecut=    50.00 Ry     beta= 0.30
     Davidson diagonalization with overlap
     ethr =  1.50E-06,  avg # of iterations =  3.5

     negative rho (up, down):  1.722E-03 0.000E+00

     total cpu time spent up to now is    15810.1 secs

     total energy              =  -21903.71756932 Ry
     Harris-Foulkes estimate   =  -21903.71807422 Ry
     estimated scf accuracy    <       0.00274983 Ry

     iteration # 26     ecut=    50.00 Ry     beta= 0.30
     Davidson diagonalization with overlap
     ethr =  2.60E-07,  avg # of iterations =  6.5

     negative rho (up, down):  1.986E-03 0.000E+00

     total cpu time spent up to now is    16231.8 secs

     total energy              =  -21903.71772044 Ry
     Harris-Foulkes estimate   =  -21903.71788027 Ry
     estimated scf accuracy    <       0.00192816 Ry

     iteration # 27     ecut=    50.00 Ry     beta= 0.30
     Davidson diagonalization with overlap
     ethr =  1.83E-07,  avg # of iterations =  4.8

     negative rho (up, down):  2.000E-03 0.000E+00

     total cpu time spent up to now is    16564.9 secs

     total energy              =  -21903.71773949 Ry
     Harris-Foulkes estimate   =  -21903.71790496 Ry
     estimated scf accuracy    <       0.00153002 Ry

     iteration # 28     ecut=    50.00 Ry     beta= 0.30
     Davidson diagonalization with overlap
     ethr =  1.45E-07,  avg # of iterations =  1.0

     negative rho (up, down):  2.294E-03 0.000E+00

     total cpu time spent up to now is    16759.6 secs

     total energy              =  -21903.71783639 Ry
     Harris-Foulkes estimate   =  -21903.71790081 Ry
     estimated scf accuracy    <       0.00088183 Ry

     iteration # 29     ecut=    50.00 Ry     beta= 0.30
     Davidson diagonalization with overlap
     ethr =  8.35E-08,  avg # of iterations =  5.3

     negative rho (up, down):  2.426E-03 0.000E+00

     total cpu time spent up to now is    17115.0 secs

     total energy              =  -21903.71788994 Ry
     Harris-Foulkes estimate   =  -21903.71789059 Ry
     estimated scf accuracy    <       0.00008034 Ry

     iteration # 30     ecut=    50.00 Ry     beta= 0.30
     Davidson diagonalization with overlap
     ethr =  7.61E-09,  avg # of iterations =  2.0

     negative rho (up, down):  2.542E-03 0.000E+00

     total cpu time spent up to now is    17340.9 secs

     total energy              =  -21903.71789726 Ry
     Harris-Foulkes estimate   =  -21903.71789641 Ry
     estimated scf accuracy    <       0.00002411 Ry

     iteration # 31     ecut=    50.00 Ry     beta= 0.30
     Davidson diagonalization with overlap
     ethr =  2.28E-09,  avg # of iterations =  2.6

     negative rho (up, down):  2.631E-03 0.000E+00

     total cpu time spent up to now is    17577.2 secs

     total energy              =  -21903.71789934 Ry
     Harris-Foulkes estimate   =  -21903.71789927 Ry
     estimated scf accuracy    <       0.00001366 Ry

     iteration # 32     ecut=    50.00 Ry     beta= 0.30
     Davidson diagonalization with overlap
     ethr =  1.29E-09,  avg # of iterations =  2.9

     negative rho (up, down):  2.682E-03 0.000E+00

     total cpu time spent up to now is    17824.9 secs

     total energy              =  -21903.71789995 Ry
     Harris-Foulkes estimate   =  -21903.71790011 Ry
     estimated scf accuracy    <       0.00000175 Ry

     iteration # 33     ecut=    50.00 Ry     beta= 0.30
     Davidson diagonalization with overlap
     ethr =  1.66E-10,  avg # of iterations =  2.0

     negative rho (up, down):  2.712E-03 0.000E+00

     total cpu time spent up to now is    18055.8 secs

     total energy              =  -21903.71790005 Ry
     Harris-Foulkes estimate   =  -21903.71790019 Ry
     estimated scf accuracy    <       0.00000048 Ry

     iteration # 34     ecut=    50.00 Ry     beta= 0.30
     Davidson diagonalization with overlap
     ethr =  4.56E-11,  avg # of iterations =  2.1

     negative rho (up, down):  2.726E-03 0.000E+00

     total cpu time spent up to now is    18305.5 secs

     total energy              =  -21903.71790003 Ry
     Harris-Foulkes estimate   =  -21903.71790012 Ry
     estimated scf accuracy    <       0.00000021 Ry

     iteration # 35     ecut=    50.00 Ry     beta= 0.30
     Davidson diagonalization with overlap
     ethr =  1.96E-11,  avg # of iterations =  2.0

     negative rho (up, down):  2.746E-03 0.000E+00

     total cpu time spent up to now is    18526.6 secs

     total energy              =  -21903.71789989 Ry
     Harris-Foulkes estimate   =  -21903.71790006 Ry
     estimated scf accuracy    <       0.00000016 Ry

     iteration # 36     ecut=    50.00 Ry     beta= 0.30
     Davidson diagonalization with overlap
     ethr =  1.50E-11,  avg # of iterations =  2.1

     negative rho (up, down):  2.751E-03 0.000E+00

     total cpu time spent up to now is    18745.4 secs

     total energy              =  -21903.71789986 Ry
     Harris-Foulkes estimate   =  -21903.71789991 Ry
     estimated scf accuracy    <       0.00000004 Ry

     iteration # 37     ecut=    50.00 Ry     beta= 0.30
     Davidson diagonalization with overlap
     ethr =  3.95E-12,  avg # of iterations =  2.0

     negative rho (up, down):  2.755E-03 0.000E+00

     total cpu time spent up to now is    18953.2 secs

     total energy              =  -21903.71789982 Ry
     Harris-Foulkes estimate   =  -21903.71789987 Ry
     estimated scf accuracy    <       0.00000009 Ry

     iteration # 38     ecut=    50.00 Ry     beta= 0.30
     Davidson diagonalization with overlap
     ethr =  3.95E-12,  avg # of iterations =  2.0

     negative rho (up, down):  2.756E-03 0.000E+00

     total cpu time spent up to now is    19163.3 secs

     total energy              =  -21903.71789982 Ry
     Harris-Foulkes estimate   =  -21903.71789983 Ry
     estimated scf accuracy    <       0.00000003 Ry

     iteration # 39     ecut=    50.00 Ry     beta= 0.30
     Davidson diagonalization with overlap
     ethr =  2.81E-12,  avg # of iterations =  1.0

     negative rho (up, down):  2.759E-03 0.000E+00

     total cpu time spent up to now is    19335.9 secs

     End of self-consistent calculation

          k = 0.0000 0.0000 0.0000 ( 61453 PWs)   bands (ev):

  -107.6475-107.6291-107.6250-107.6250-107.6230-107.6206-107.6206-107.6201
  -107.6186-107.6174-107.6174-107.6174-107.6168-107.6168-107.6162-107.6162
  -107.6146-107.6146-107.6145-107.6135-107.6119-107.6113-107.6113-107.6095
  -107.6064-107.6048-107.6043-107.6043-107.6027-107.6027-107.6020-107.6020
  -107.6011-107.6008-107.6003-107.5983-107.5983-107.5931-107.5803-107.4704
  -107.4678-107.4678-107.4227-107.4202-107.4202-107.3674-107.3634-107.3634
  -107.3626-107.3611-107.3611-107.3604-107.3584-107.3584 -65.0925 -65.0795
   -65.0704 -65.0704 -65.0699 -65.0699 -65.0684 -65.0657 -65.0657 -65.0631
   -65.0619 -65.0619 -65.0601 -65.0596 -65.0596 -65.0591 -65.0580 -65.0571
   -65.0571 -65.0568 -65.0553 -65.0553 -65.0504 -65.0490 -65.0490 -65.0476
   -65.0464 -65.0464 -65.0453 -65.0435 -65.0435 -65.0434 -65.0429 -65.0429
   -65.0421 -65.0412 -65.0412 -65.0402 -65.0402 -65.0401 -65.0379 -65.0376
   -65.0376 -65.0368 -65.0354 -65.0354 -65.0343 -65.0341 -65.0341 -65.0337
   -65.0318 -65.0318 -65.0309 -65.0302 -65.0302 -65.0273 -65.0270 -65.0270
   -65.0264 -65.0231 -65.0219 -65.0219 -65.0217 -65.0214 -65.0214 -65.0205
   -65.0189 -65.0189 -65.0183 -65.0183 -65.0183 -65.0168 -65.0168 -65.0163
   -65.0160 -65.0152 -65.0152 -65.0139 -65.0119 -65.0119 -65.0111 -65.0111
   -65.0108 -65.0108 -65.0101 -65.0101 -65.0098 -65.0072 -65.0072 -65.0067
   -65.0062 -65.0060 -65.0060 -65.0049 -65.0049 -65.0042 -65.0024 -65.0024
   -65.0019 -65.0009 -65.0000 -65.0000 -64.9987 -64.9987 -64.9986 -64.9973
   -64.9973 -64.9972 -64.9942 -64.9942 -64.9941 -64.9910 -64.9910 -64.9844
   -64.9844 -64.9836 -64.9836 -64.9169 -64.9152 -64.9151 -64.8993 -64.8885
   -64.8885 -64.8718 -64.8632 -64.8632 -64.8565 -64.8543 -64.8543 -64.8490
   -64.8395 -64.8395 -64.8230 -64.8223 -64.8223 -64.8214 -64.8203 -64.8203
   -64.8182 -64.8182 -64.8182 -64.8178 -64.8046 -64.8024 -64.8024 -64.7867
   -64.7866 -64.7865 -64.7858 -64.7858 -64.7840 -64.7736 -64.7736 -64.7391
   -64.7354 -64.7354 -64.7346 -64.7330 -64.7330 -64.7319 -64.7300 -64.7299
   -13.4774 -10.6959 -10.6957  -7.0605  -7.0599  -5.1313  -3.8986  -3.4927
    -3.3034  -3.1470  -2.4840  -2.4839  -2.4581  -1.8104  -1.0672  -0.9356
    -0.9356  -0.9310  -0.9310  -0.9288  -0.9157  -0.5794  -0.5793  -0.5519
    -0.5519  -0.5289  -0.5172  -0.4922  -0.4921  -0.2860  -0.0830  -0.0830
    -0.0359  -0.0337  -0.0291  -0.0290  -0.0031   0.3360   0.3360   0.4135
     0.4189   0.4189   0.4320   0.6460   0.6461   0.7607   0.7607   0.7610
     0.7724   0.8606   0.8606   0.8933   0.8981   0.8981   0.9030   0.9172
     0.9172   0.9435   0.9435   0.9443   0.9482   0.9785   0.9785   0.9923
     0.9928   0.9931   0.9931   1.0027   1.0027   1.0864   1.0917   1.1048
     1.1086   1.1086   1.1114   1.1114   1.1167   1.1202   1.1202   1.1394
     1.1394   1.1412   1.1414   1.1592   1.1592   1.2343   1.2343   1.3041
     1.3041   1.3173   1.3222   1.3222   1.3265   1.3708   1.3708   1.3785
     1.3785   1.5537   1.5537   1.5599   1.5628   1.5850   1.5850   1.7087
     1.7087   1.7178   1.7178   1.7195   1.7197   1.7197   1.7248   1.7360
     1.7390   1.7463   1.7463   1.7705   1.7833   1.8323   1.8323   1.8331
     1.8390   1.8433   1.8433   1.8483   1.8496   1.8838   1.8838   1.8897
     1.9101   1.9113   1.9113   1.9206   1.9206   1.9218   1.9318   1.9318
     1.9675   1.9675   1.9706   1.9740   1.9740   1.9772   1.9772   1.9774
     1.9905   1.9987   1.9987   2.0007   2.0038   2.0038   2.0074   2.0099
     2.0099   2.0158   2.0234   2.0260   2.0260   2.0886   2.0886   2.1086
     2.1100   2.1100   2.1226   2.1516   2.1516   2.1568   2.1568   2.1834
     2.1839   2.1897   2.1914   2.1914   2.2012   2.2012   2.2013   2.2046
     2.2046   2.3452   2.3452   2.3552   2.3604   2.3921   2.3921   2.4323
     2.4379   2.4379   2.4501   2.4501   2.4540   2.4559   2.4559   2.4747
     2.4908   2.5253   2.5253   2.5404   2.5404   2.5508   2.5508   2.5651
     2.5655   2.6258   2.6258   2.6272   2.6295   2.6295   2.6408   2.6408
     2.6417   2.6481   2.6481   2.6653   2.6713   2.6714   2.6803   2.6803
     2.6821   2.6821   2.6848   2.6924   2.7016   2.7016   2.7479   2.7479
     2.8192   2.8217   2.8217   2.8251   2.8267   2.8267   2.8736   2.8751
     2.8751   2.8763   2.8856   2.8856   2.8865   2.8908   2.8924   2.8924
     2.8944   2.8944   2.9191   2.9191   2.9254   2.9428   2.9428   2.9513
     2.9513   2.9549   2.9597   2.9619   2.9619   2.9673   2.9687   2.9687
     2.9703   2.9714   2.9714   2.9730   2.9730   2.9809   2.9809   2.9821
     3.0104   3.0160   3.0160   3.0274   3.0274   3.0360   3.0393   3.0393
     3.0583   3.0605   3.0780   3.0780   3.0811   3.0811   3.0817   3.0854
     3.0932   3.0932   3.1064   3.1064   3.1245   3.1245   3.1294   3.1345
     3.1345   3.1395   3.1402   3.1418   3.1418   3.1468   3.1625   3.1625
     3.1668   3.1799   3.1799   3.1926   3.2261   3.2270   3.2270   3.2322
     3.2322   3.2328   3.3008   3.3008   4.0485   4.1187   4.1187   4.1418
     4.2845   4.3100   4.3100   4.8482   5.4838   5.4839   5.5611   5.7459
     5.7678   5.7678   6.5551   6.5553   6.9739   7.2953   7.4212   7.4237
     7.4238   7.6286   7.6287   8.0276   8.0276   8.0296   8.0301   8.0491
     8.0491   8.1979   8.4182   8.4182   8.4414   8.4456   8.4456   8.7708
     8.7996   8.8230   8.8974   8.8974   8.9690   9.0530   9.0640   9.2871
     9.4050   9.4050   9.5820   9.7011   9.7011   9.7331   9.7331   9.9620
     9.9996   9.9997  10.0785  10.0895  10.5238  10.5583  10.6398  10.6399
    10.7121  10.7121  10.8775  10.8775  11.0215  11.0216  11.0698  11.1490
    11.1490  11.1812  11.2167  11.3548  11.3549  11.4710  11.4961  11.4961
    11.5931  11.6392  11.6392  11.8004  11.8356  11.8356  11.9101  11.9101
    11.9882  12.0330  12.0330  12.0490  12.0976  12.1183  12.1183  12.2492
    12.2492  12.3127  12.3855  12.4285  12.4285  12.7559  12.7559  12.8097
    12.9291  12.9292  12.9749  13.0913  13.0916  13.1076  13.1226  13.1958
    13.2736  13.3020

          k = 0.0000 0.2887 0.0000 ( 61417 PWs)   bands (ev):

  -107.6475-107.6288-107.6255-107.6251-107.6231-107.6205-107.6205-107.6198
  -107.6185-107.6180-107.6176-107.6175-107.6168-107.6165-107.6162-107.6160
  -107.6149-107.6147-107.6144-107.6136-107.6119-107.6112-107.6111-107.6094
  -107.6064-107.6051-107.6044-107.6041-107.6029-107.6028-107.6020-107.6016
  -107.6008-107.6008-107.6005-107.5983-107.5983-107.5931-107.5803-107.4704
  -107.4678-107.4678-107.4227-107.4202-107.4202-107.3671-107.3642-107.3635
  -107.3626-107.3610-107.3609-107.3601-107.3585-107.3584 -65.0923 -65.0788
   -65.0733 -65.0720 -65.0712 -65.0711 -65.0701 -65.0684 -65.0677 -65.0661
   -65.0648 -65.0642 -65.0636 -65.0624 -65.0610 -65.0590 -65.0576 -65.0564
   -65.0562 -65.0550 -65.0530 -65.0528 -65.0522 -65.0514 -65.0505 -65.0499
   -65.0495 -65.0476 -65.0459 -65.0445 -65.0443 -65.0435 -65.0426 -65.0422
   -65.0408 -65.0397 -65.0394 -65.0384 -65.0383 -65.0367 -65.0364 -65.0362
   -65.0351 -65.0343 -65.0338 -65.0327 -65.0322 -65.0311 -65.0304 -65.0300
   -65.0294 -65.0290 -65.0278 -65.0269 -65.0267 -65.0266 -65.0260 -65.0256
   -65.0244 -65.0237 -65.0234 -65.0230 -65.0218 -65.0212 -65.0205 -65.0201
   -65.0196 -65.0188 -65.0177 -65.0176 -65.0173 -65.0166 -65.0155 -65.0153
   -65.0146 -65.0141 -65.0138 -65.0135 -65.0129 -65.0128 -65.0117 -65.0117
   -65.0110 -65.0108 -65.0104 -65.0094 -65.0091 -65.0086 -65.0085 -65.0075
   -65.0073 -65.0069 -65.0063 -65.0056 -65.0053 -65.0045 -65.0040 -65.0026
   -65.0021 -65.0014 -65.0009 -65.0000 -64.9998 -64.9994 -64.9987 -64.9987
   -64.9983 -64.9979 -64.9957 -64.9955 -64.9941 -64.9927 -64.9914 -64.9881
   -64.9853 -64.9852 -64.9840 -64.9164 -64.9155 -64.9147 -64.8999 -64.8897
   -64.8887 -64.8693 -64.8628 -64.8617 -64.8565 -64.8543 -64.8543 -64.8497
   -64.8413 -64.8399 -64.8330 -64.8279 -64.8274 -64.8258 -64.8254 -64.8145
   -64.8138 -64.8087 -64.8080 -64.8052 -64.8046 -64.8024 -64.8023 -64.7903
   -64.7900 -64.7889 -64.7862 -64.7853 -64.7817 -64.7778 -64.7746 -64.7387
   -64.7360 -64.7354 -64.7346 -64.7329 -64.7329 -64.7318 -64.7300 -64.7299
   -13.4765 -10.6995 -10.6965  -7.0633  -7.0555  -5.1010  -3.6865  -3.4630
    -3.1511  -3.1013  -2.5478  -2.4935  -2.2962  -2.0786  -1.7751  -1.5060
    -1.3700  -1.3603  -0.9441  -0.9013  -0.8658  -0.7255  -0.5743  -0.5416
    -0.3151  -0.3128  -0.2610  -0.2205  -0.1328  -0.1036  -0.0361  -0.0359
     0.0873   0.1214   0.1467   0.2248   0.2342   0.2427   0.3470   0.4099
     0.4366   0.4985   0.4991   0.6076   0.6812   0.6972   0.7367   0.7395
     0.7431   0.7725   0.7761   0.7792   0.8045   0.8218   0.8415   0.8435
     0.8504   0.8528   0.8890   0.8946   0.9156   0.9167   0.9328   0.9486
     0.9604   0.9763   0.9920   1.0246   1.0311   1.0318   1.0331   1.0483
     1.0499   1.0596   1.0641   1.0908   1.0996   1.1411   1.1965   1.1991
     1.2002   1.2284   1.2360   1.2441   1.2485   1.2750   1.2795   1.3132
     1.3202   1.3255   1.3918   1.3922   1.4036   1.4155   1.4295   1.4363
     1.4752   1.4768   1.4907   1.5131   1.5165   1.5213   1.5406   1.5936
     1.5945   1.5996   1.6045   1.6225   1.6470   1.6618   1.6731   1.6794
     1.6848   1.6986   1.7303   1.7315   1.7570   1.7867   1.8134   1.8149
     1.8150   1.8278   1.8293   1.8340   1.8593   1.8666   1.8797   1.8891
     1.8902   1.8925   1.8980   1.9015   1.9070   1.9238   1.9336   1.9517
     1.9552   1.9565   1.9631   1.9657   1.9663   1.9750   1.9768   1.9928
     1.9946   1.9987   2.0024   2.0058   2.0213   2.0238   2.0303   2.0358
     2.0363   2.0444   2.0459   2.0702   2.0724   2.0728   2.0773   2.0784
     2.1169   2.1214   2.1253   2.1323   2.1398   2.1443   2.1474   2.1536
     2.1551   2.1653   2.1690   2.1781   2.1850   2.2110   2.2255   2.2257
     2.2313   2.2420   2.2463   2.2656   2.2768   2.2967   2.2967   2.3148
     2.3241   2.3273   2.3535   2.3736   2.3810   2.3854   2.3899   2.3956
     2.4310   2.4615   2.4648   2.4724   2.4835   2.4917   2.5078   2.5118
     2.5381   2.5409   2.5441   2.5482   2.5540   2.5581   2.5642   2.5669
     2.6140   2.6195   2.6289   2.6292   2.6304   2.6524   2.6584   2.6609
     2.6675   2.6693   2.6922   2.6998   2.7069   2.7119   2.7157   2.7239
     2.7377   2.7393   2.7483   2.7570   2.7708   2.7713   2.7784   2.7820
     2.7845   2.7945   2.8461   2.8545   2.8606   2.8764   2.8768   2.8919
     2.9004   2.9034   2.9061   2.9061   2.9100   2.9157   2.9222   2.9260
     2.9345   2.9400   2.9495   2.9792   2.9840   2.9845   2.9883   2.9996
     3.0007   3.0147   3.0150   3.0276   3.0355   3.0381   3.0638   3.0639
     3.0838   3.0865   3.0905   3.0939   3.1008   3.1071   3.1079   3.1115
     3.1126   3.1138   3.1289   3.1294   3.1335   3.1353   3.1403   3.1474
     3.1686   3.1707   3.1747   3.1760   3.1784   3.1814   3.1820   3.1841
     3.2066   3.2170   3.2185   3.2299   3.2314   3.2437   3.2470   3.2587
     3.2750   3.3452   3.4180   3.4537   3.4843   3.4914   3.6143   3.6453
     3.6488   3.8966   3.9267   3.9505   3.9736   4.0600   4.2536   4.5560
     4.7103   4.8958   4.9302   5.1464   5.2380   5.3276   5.4454   6.0023
     6.0194   6.1399   6.2194   6.3704   6.4064   6.4097   6.5293   6.7508
     6.7941   7.0449   7.0466   7.0922   7.2204   7.2735   7.6424   7.9174
     7.9396   7.9647   8.0922   8.2128   8.3228   8.4099   8.4442   8.5036
     8.6442   8.7398   8.8847   8.8933   9.0023   9.0460   9.3133   9.4260
     9.4421   9.4983   9.5935   9.6682   9.8398   9.8758   9.9241  10.0284
    10.0698  10.1262  10.2071  10.2591  10.2983  10.4415  10.5648  10.5764
    10.5949  10.6112  10.6222  10.7200  10.7627  10.7989  10.8349  10.9023
    11.0682  11.0977  11.1043  11.1904  11.2066  11.2991  11.4660  11.4726
    11.5650  11.5801  11.6642  11.7470  11.8168  11.9023  11.9146  12.0472
    12.1158  12.1412  12.2270  12.2913  12.4325  12.4600  12.5708  12.5802
    12.6200  12.6864  12.7596  12.8059  12.8391  12.8650  12.9461  12.9929
    13.0086  13.0895  13.1419  13.1586  13.2374  13.3339  13.4063  13.4240
    13.5173  13.5645

          k = 0.0000-0.5774 0.0000 ( 61408 PWs)   bands (ev):

  -107.6475-107.6284-107.6260-107.6251-107.6232-107.6204-107.6203-107.6193
  -107.6186-107.6183-107.6178-107.6177-107.6168-107.6163-107.6161-107.6156
  -107.6152-107.6149-107.6144-107.6137-107.6118-107.6112-107.6110-107.6093
  -107.6065-107.6053-107.6045-107.6038-107.6032-107.6028-107.6020-107.6011
  -107.6009-107.6008-107.6006-107.5983-107.5983-107.5931-107.5803-107.4704
  -107.4678-107.4678-107.4227-107.4202-107.4202-107.3665-107.3650-107.3636
  -107.3628-107.3607-107.3607-107.3600-107.3586-107.3584 -65.0921 -65.0774
   -65.0763 -65.0743 -65.0739 -65.0719 -65.0702 -65.0691 -65.0688 -65.0673
   -65.0669 -65.0662 -65.0654 -65.0644 -65.0624 -65.0612 -65.0576 -65.0563
   -65.0563 -65.0549 -65.0541 -65.0533 -65.0529 -65.0525 -65.0520 -65.0504
   -65.0499 -65.0482 -65.0459 -65.0451 -65.0441 -65.0431 -65.0414 -65.0409
   -65.0400 -65.0388 -65.0376 -65.0371 -65.0360 -65.0344 -65.0337 -65.0334
   -65.0328 -65.0321 -65.0319 -65.0315 -65.0304 -65.0296 -65.0294 -65.0286
   -65.0281 -65.0271 -65.0264 -65.0257 -65.0256 -65.0252 -65.0246 -65.0240
   -65.0233 -65.0228 -65.0227 -65.0214 -65.0202 -65.0198 -65.0190 -65.0189
   -65.0188 -65.0180 -65.0176 -65.0171 -65.0170 -65.0161 -65.0155 -65.0154
   -65.0152 -65.0145 -65.0133 -65.0131 -65.0126 -65.0118 -65.0114 -65.0112
   -65.0106 -65.0105 -65.0100 -65.0096 -65.0088 -65.0087 -65.0080 -65.0077
   -65.0076 -65.0075 -65.0070 -65.0066 -65.0063 -65.0056 -65.0053 -65.0039
   -65.0037 -65.0026 -65.0018 -65.0013 -65.0008 -64.9999 -64.9995 -64.9989
   -64.9986 -64.9984 -64.9975 -64.9971 -64.9962 -64.9943 -64.9943 -64.9896
   -64.9870 -64.9867 -64.9844 -64.9170 -64.9146 -64.9142 -64.9005 -64.8908
   -64.8890 -64.8673 -64.8616 -64.8600 -64.8565 -64.8543 -64.8543 -64.8507
   -64.8436 -64.8402 -64.8372 -64.8302 -64.8296 -64.8285 -64.8280 -64.8108
   -64.8102 -64.8046 -64.8023 -64.8023 -64.7988 -64.7986 -64.7979 -64.7970
   -64.7906 -64.7900 -64.7890 -64.7865 -64.7863 -64.7784 -64.7769 -64.7382
   -64.7367 -64.7355 -64.7347 -64.7327 -64.7326 -64.7317 -64.7301 -64.7299
   -13.4757 -10.7031 -10.6973  -7.0666  -7.0505  -5.0697  -3.4330  -3.1554
    -3.0687  -3.0623  -2.6423  -2.5445  -2.5029  -2.4219  -1.9913  -1.5590
    -1.5266  -1.5251  -1.3643  -1.0297  -1.0053  -0.6421  -0.5372  -0.5258
    -0.3985  -0.3374  -0.2631   0.0837   0.2074   0.2723   0.2745   0.2892
     0.2903   0.2947   0.2966   0.3512   0.3650   0.4484   0.4552   0.4672
     0.4712   0.4845   0.4859   0.4906   0.4909   0.5314   0.5336   0.5408
     0.5411   0.6347   0.6694   0.6751   0.6982   0.7027   0.7051   0.7788
     0.7832   0.8401   0.8834   0.8885   0.8894   0.8908   0.8966   0.9231
     0.9251   0.9321   0.9331   0.9791   0.9899   1.0583   1.0597   1.0626
     1.0734   1.0845   1.0932   1.1499   1.1603   1.1611   1.1827   1.1830
     1.2211   1.2219   1.2596   1.2597   1.3098   1.3099   1.3158   1.3283
     1.3856   1.3865   1.4251   1.4274   1.4275   1.4339   1.4409   1.4540
     1.4662   1.4667   1.4945   1.5253   1.5287   1.5634   1.5685   1.5890
     1.5919   1.5988   1.6006   1.6170   1.6188   1.6224   1.6252   1.6630
     1.6718   1.6751   1.6817   1.6818   1.6948   1.7161   1.7276   1.7389
     1.7410   1.7488   1.7561   1.7570   1.7606   1.7723   1.7878   1.8275
     1.8496   1.8528   1.8548   1.8667   1.8748   1.8993   1.9018   1.9054
     1.9072   1.9093   1.9153   1.9273   1.9327   1.9435   1.9734   1.9749
     1.9754   1.9786   1.9914   1.9991   2.0033   2.0101   2.0365   2.0435
     2.0465   2.0534   2.0564   2.0644   2.0670   2.0729   2.0757   2.0902
     2.0999   2.1272   2.1451   2.1496   2.1882   2.1897   2.1919   2.1933
     2.1991   2.2030   2.2069   2.2109   2.2120   2.2189   2.2314   2.2356
     2.2369   2.2428   2.2487   2.2497   2.2528   2.2553   2.2555   2.3152
     2.3261   2.3298   2.3490   2.3608   2.3637   2.3743   2.3881   2.4053
     2.4074   2.4148   2.4176   2.4242   2.4358   2.4398   2.4586   2.4768
     2.4779   2.4824   2.4866   2.4959   2.5009   2.5192   2.5200   2.5239
     2.5286   2.5337   2.5393   2.5418   2.5470   2.5662   2.5664   2.6413
     2.6557   2.6655   2.6722   2.6833   2.6848   2.7009   2.7044   2.7219
     2.7258   2.7461   2.7507   2.7600   2.7717   2.7768   2.7843   2.7961
     2.7965   2.8048   2.8119   2.8153   2.8212   2.8328   2.8444   2.8465
     2.8592   2.8711   2.8758   2.9029   2.9032   2.9104   2.9126   2.9145
     2.9182   2.9220   2.9353   2.9582   2.9636   2.9858   2.9894   2.9980
     2.9984   3.0159   3.0279   3.0393   3.0415   3.0728   3.0733   3.0909
     3.1054   3.1167   3.1193   3.1348   3.1349   3.1382   3.1387   3.1401
     3.1411   3.1525   3.1762   3.1780   3.1788   3.1791   3.1799   3.1915
     3.1958   3.2022   3.2087   3.2164   3.2289   3.2289   3.2327   3.2362
     3.2379   3.2783   3.2807   3.2922   3.2925   3.2967   3.2987   3.3035
     3.3143   3.3238   3.4252   3.9057   3.9895   4.0135   4.0685   4.4348
     4.5019   4.5051   4.5055   4.5076   4.7444   4.7623   4.7656   4.7685
     5.0466   5.1045   5.1908   5.2349   5.2381   5.2991   5.3503   5.3898
     5.4777   5.5806   5.8976   6.0071   6.1354   6.1721   6.2607   6.2998
     6.3226   6.3689   6.4105   6.6995   6.8170   6.9292   7.0256   7.5825
     7.6193   7.6466   7.7836   7.8828   8.0232   8.3800   8.4104   8.4793
     8.7284   8.7428   8.7693   8.8276   8.9415   9.0363   9.0671   9.2578
     9.3656   9.3958   9.3997   9.4226   9.4682   9.5129   9.5983   9.7338
     9.8042   9.9006   9.9840  10.0762  10.1298  10.2443  10.2995  10.4015
    10.4252  10.5614  10.6489  10.6809  10.7300  10.7911  10.9499  11.0427
    11.0798  11.1048  11.2345  11.2528  11.2927  11.4212  11.4446  11.5110
    11.8193  11.8343  11.9216  12.0575  12.1705  12.2308  12.2694  12.4037
    12.4067  12.4452  12.5074  12.7201  12.7531  12.8016  12.8153  12.8832
    12.9073  13.0565  13.1492  13.1618  13.2554  13.3419  13.3848  13.3967
    13.4278  13.4550  13.4657  13.4884  13.4928  13.6587  13.6601  13.7107
    13.9058  13.9099

          k = 0.2500-0.7217 0.0000 ( 61343 PWs)   bands (ev):

  -107.6475-107.6284-107.6258-107.6254-107.6232-107.6204-107.6203-107.6193
  -107.6184-107.6183-107.6179-107.6177-107.6170-107.6161-107.6159-107.6158
  -107.6152-107.6148-107.6145-107.6137-107.6118-107.6112-107.6110-107.6093
  -107.6065-107.6053-107.6044-107.6039-107.6032-107.6029-107.6017-107.6014
  -107.6008-107.6008-107.6006-107.5983-107.5983-107.5931-107.5803-107.4704
  -107.4678-107.4678-107.4227-107.4202-107.4202-107.3665-107.3647-107.3641
  -107.3624-107.3607-107.3606-107.3601-107.3586-107.3584 -65.0921 -65.0775
   -65.0753 -65.0740 -65.0735 -65.0726 -65.0718 -65.0708 -65.0694 -65.0675
   -65.0665 -65.0660 -65.0635 -65.0615 -65.0610 -65.0609 -65.0596 -65.0587
   -65.0557 -65.0555 -65.0543 -65.0538 -65.0526 -65.0520 -65.0509 -65.0504
   -65.0493 -65.0481 -65.0465 -65.0460 -65.0436 -65.0427 -65.0423 -65.0415
   -65.0391 -65.0383 -65.0376 -65.0371 -65.0360 -65.0357 -65.0347 -65.0339
   -65.0335 -65.0326 -65.0323 -65.0312 -65.0307 -65.0298 -65.0282 -65.0279
   -65.0268 -65.0265 -65.0258 -65.0255 -65.0252 -65.0249 -65.0243 -65.0239
   -65.0236 -65.0229 -65.0224 -65.0211 -65.0207 -65.0203 -65.0195 -65.0193
   -65.0190 -65.0177 -65.0173 -65.0168 -65.0163 -65.0158 -65.0154 -65.0150
   -65.0145 -65.0139 -65.0137 -65.0134 -65.0129 -65.0122 -65.0119 -65.0110
   -65.0110 -65.0107 -65.0101 -65.0099 -65.0097 -65.0088 -65.0086 -65.0081
   -65.0079 -65.0074 -65.0070 -65.0063 -65.0060 -65.0056 -65.0051 -65.0040
   -65.0033 -65.0027 -65.0021 -65.0017 -65.0011 -65.0003 -64.9990 -64.9988
   -64.9986 -64.9984 -64.9979 -64.9971 -64.9965 -64.9931 -64.9921 -64.9907
   -64.9872 -64.9863 -64.9850 -64.9163 -64.9152 -64.9143 -64.9005 -64.8905
   -64.8893 -64.8666 -64.8621 -64.8605 -64.8565 -64.8543 -64.8543 -64.8505
   -64.8430 -64.8407 -64.8353 -64.8344 -64.8319 -64.8252 -64.8217 -64.8209
   -64.8046 -64.8024 -64.8023 -64.8022 -64.8002 -64.7990 -64.7985 -64.7935
   -64.7930 -64.7926 -64.7916 -64.7856 -64.7813 -64.7807 -64.7768 -64.7383
   -64.7365 -64.7359 -64.7345 -64.7327 -64.7326 -64.7318 -64.7301 -64.7299
   -13.4757 -10.7017 -10.6987  -7.0625  -7.0546  -5.0700  -3.4326  -3.2692
    -3.1551  -2.7236  -2.5753  -2.5475  -2.4588  -2.4415  -2.1163  -1.8858
    -1.8292  -1.5535  -1.0508  -0.9735  -0.6182  -0.6038  -0.5495  -0.4454
    -0.4420  -0.1281  -0.1039  -0.0743  -0.0465   0.1380   0.1436   0.1506
     0.2803   0.3095   0.3394   0.3407   0.3486   0.3966   0.4046   0.4099
     0.4316   0.5122   0.5134   0.5327   0.5344   0.5455   0.5698   0.6435
     0.6667   0.6806   0.6903   0.7136   0.7268   0.7291   0.7323   0.7407
     0.7556   0.7667   0.8323   0.8435   0.8521   0.8671   0.8739   0.9034
     0.9057   0.9250   0.9356   0.9557   1.0013   1.0105   1.0203   1.0392
     1.0434   1.1016   1.1214   1.1608   1.1802   1.1852   1.1922   1.1983
     1.2728   1.2810   1.2867   1.2905   1.2970   1.3042   1.3368   1.3519
     1.3618   1.4157   1.4185   1.4305   1.4361   1.4467   1.4533   1.4565
     1.4640   1.5074   1.5097   1.5165   1.5221   1.5307   1.5425   1.5595
     1.5648   1.5746   1.5791   1.6061   1.6122   1.6162   1.6274   1.6349
     1.6422   1.6723   1.7129   1.7159   1.7168   1.7233   1.7314   1.7401
     1.7604   1.7713   1.7862   1.8040   1.8111   1.8133   1.8204   1.8219
     1.8320   1.8350   1.8498   1.8601   1.8625   1.8821   1.8988   1.9001
     1.9052   1.9175   1.9246   1.9382   1.9399   1.9537   1.9562   1.9638
     1.9675   1.9717   1.9780   1.9926   2.0052   2.0342   2.0387   2.0418
     2.0483   2.0563   2.0669   2.0704   2.0771   2.0824   2.0838   2.0878
     2.0933   2.0989   2.1019   2.1062   2.1340   2.1378   2.1412   2.1454
     2.1713   2.1741   2.1774   2.1822   2.1880   2.1927   2.1955   2.1968
     2.1974   2.1988   2.2509   2.2544   2.2904   2.3173   2.3204   2.3243
     2.3332   2.3358   2.3430   2.3514   2.3681   2.3802   2.3931   2.4065
     2.4214   2.4233   2.4545   2.4583   2.4648   2.4775   2.4781   2.4883
     2.4946   2.4972   2.4996   2.5050   2.5064   2.5121   2.5219   2.5346
     2.5373   2.5657   2.5769   2.5815   2.5834   2.5979   2.6086   2.6155
     2.6255   2.6386   2.6465   2.6492   2.6553   2.6633   2.7006   2.7021
     2.7058   2.7155   2.7172   2.7361   2.7423   2.7691   2.7775   2.7827
     2.7913   2.7962   2.8076   2.8157   2.8343   2.8365   2.8416   2.8508
     2.8586   2.8616   2.8664   2.8701   2.8771   2.8857   2.9146   2.9329
     2.9395   2.9459   2.9529   2.9724   2.9889   2.9934   3.0062   3.0186
     3.0338   3.0535   3.0624   3.0690   3.0724   3.0780   3.0821   3.1048
     3.1102   3.1179   3.1206   3.1252   3.1300   3.1343   3.1378   3.1410
     3.1462   3.1474   3.1516   3.1534   3.1592   3.1663   3.1672   3.1724
     3.1794   3.1907   3.1923   3.2025   3.2162   3.2253   3.2301   3.2378
     3.2413   3.2551   3.2577   3.2677   3.2961   3.3162   3.3185   3.4930
     3.5402   3.5805   3.5831   3.6684   3.6789   3.8431   3.9991   4.0177
     4.4078   4.4723   4.4873   4.4891   4.5134   4.7578   4.8296   4.8683
     4.8869   4.9196   5.1455   5.2908   5.3348   5.3631   5.8035   5.8138
     5.8797   5.9385   6.0469   6.1068   6.1092   6.2595   6.2750   6.3246
     6.4158   6.6274   6.6420   6.8135   6.9471   7.0044   7.0711   7.2160
     7.2727   7.2801   7.3466   7.5667   7.6983   7.8057   8.0846   8.1746
     8.4707   8.6590   8.6745   8.7325   8.7817   8.8518   9.1284   9.1716
     9.3152   9.3819   9.4290   9.5495   9.5863   9.6343   9.7614   9.8127
     9.8688  10.0302  10.1592  10.2087  10.2331  10.4062  10.4343  10.5773
    10.5986  10.6649  10.8341  10.9305  11.0470  11.0820  11.1163  11.1456
    11.2252  11.3406  11.4195  11.6080  11.6423  11.6717  11.7244  11.7704
    11.8277  11.9115  11.9359  11.9611  12.0442  12.1356  12.1851  12.2681
    12.3135  12.3685  12.4792  12.5217  12.5726  12.6781  12.7041  12.7764
    12.7829  12.8175  12.9360  12.9430  12.9929  13.1125  13.2025  13.2199
    13.3447  13.3965  13.4022  13.4297  13.5530  13.5926  13.6970  13.7361
    13.7779  13.8091

          k =-0.2500 0.1443 0.0000 ( 61417 PWs)   bands (ev):

  -107.6475-107.6288-107.6255-107.6251-107.6231-107.6205-107.6205-107.6198
  -107.6185-107.6180-107.6176-107.6175-107.6168-107.6165-107.6162-107.6160
  -107.6149-107.6147-107.6144-107.6136-107.6119-107.6112-107.6111-107.6094
  -107.6064-107.6051-107.6044-107.6041-107.6029-107.6028-107.6020-107.6016
  -107.6008-107.6008-107.6005-107.5983-107.5983-107.5931-107.5803-107.4704
  -107.4678-107.4678-107.4227-107.4202-107.4202-107.3671-107.3642-107.3635
  -107.3626-107.3610-107.3609-107.3601-107.3585-107.3584 -65.0923 -65.0788
   -65.0733 -65.0720 -65.0712 -65.0711 -65.0701 -65.0684 -65.0677 -65.0661
   -65.0648 -65.0642 -65.0636 -65.0624 -65.0610 -65.0590 -65.0576 -65.0564
   -65.0562 -65.0550 -65.0530 -65.0528 -65.0522 -65.0514 -65.0505 -65.0499
   -65.0495 -65.0476 -65.0459 -65.0445 -65.0443 -65.0435 -65.0426 -65.0422
   -65.0408 -65.0397 -65.0394 -65.0384 -65.0383 -65.0367 -65.0364 -65.0362
   -65.0351 -65.0343 -65.0338 -65.0327 -65.0322 -65.0311 -65.0304 -65.0300
   -65.0294 -65.0290 -65.0278 -65.0269 -65.0267 -65.0266 -65.0260 -65.0256
   -65.0244 -65.0237 -65.0234 -65.0230 -65.0218 -65.0212 -65.0205 -65.0201
   -65.0196 -65.0188 -65.0177 -65.0176 -65.0173 -65.0166 -65.0155 -65.0153
   -65.0146 -65.0141 -65.0138 -65.0135 -65.0129 -65.0128 -65.0117 -65.0117
   -65.0110 -65.0108 -65.0104 -65.0094 -65.0091 -65.0086 -65.0085 -65.0075
   -65.0073 -65.0069 -65.0063 -65.0056 -65.0053 -65.0045 -65.0040 -65.0026
   -65.0021 -65.0014 -65.0009 -65.0000 -64.9998 -64.9994 -64.9987 -64.9987
   -64.9983 -64.9979 -64.9957 -64.9955 -64.9941 -64.9927 -64.9914 -64.9881
   -64.9853 -64.9852 -64.9840 -64.9164 -64.9155 -64.9147 -64.8999 -64.8897
   -64.8887 -64.8693 -64.8628 -64.8617 -64.8565 -64.8543 -64.8543 -64.8497
   -64.8413 -64.8399 -64.8330 -64.8279 -64.8274 -64.8258 -64.8254 -64.8145
   -64.8138 -64.8087 -64.8080 -64.8052 -64.8046 -64.8024 -64.8023 -64.7903
   -64.7900 -64.7889 -64.7862 -64.7853 -64.7817 -64.7778 -64.7746 -64.7387
   -64.7360 -64.7354 -64.7346 -64.7329 -64.7329 -64.7318 -64.7300 -64.7299
   -13.4765 -10.6993 -10.6967  -7.0637  -7.0551  -5.1010  -3.6865  -3.4630
    -3.1511  -3.1013  -2.5477  -2.4936  -2.2962  -2.0786  -1.7751  -1.5060
    -1.3700  -1.3603  -0.9441  -0.9013  -0.8658  -0.7255  -0.5741  -0.5418
    -0.3151  -0.3128  -0.2610  -0.2205  -0.1328  -0.1036  -0.0361  -0.0359
     0.0873   0.1214   0.1467   0.2248   0.2342   0.2427   0.3470   0.4099
     0.4366   0.4985   0.4991   0.6076   0.6812   0.6972   0.7367   0.7395
     0.7431   0.7725   0.7761   0.7792   0.8044   0.8218   0.8415   0.8435
     0.8504   0.8528   0.8890   0.8946   0.9156   0.9167   0.9328   0.9486
     0.9604   0.9763   0.9920   1.0246   1.0311   1.0318   1.0331   1.0483
     1.0499   1.0596   1.0641   1.0908   1.0996   1.1411   1.1965   1.1991
     1.2002   1.2284   1.2360   1.2441   1.2485   1.2750   1.2795   1.3132
     1.3202   1.3255   1.3918   1.3922   1.4036   1.4155   1.4295   1.4363
     1.4752   1.4768   1.4907   1.5131   1.5165   1.5213   1.5406   1.5936
     1.5945   1.5996   1.6045   1.6225   1.6470   1.6618   1.6731   1.6794
     1.6848   1.6986   1.7303   1.7315   1.7570   1.7867   1.8134   1.8149
     1.8150   1.8278   1.8293   1.8340   1.8593   1.8666   1.8797   1.8891
     1.8902   1.8925   1.8980   1.9015   1.9070   1.9238   1.9336   1.9517
     1.9552   1.9565   1.9631   1.9657   1.9663   1.9750   1.9768   1.9928
     1.9946   1.9987   2.0024   2.0058   2.0213   2.0238   2.0303   2.0358
     2.0363   2.0444   2.0459   2.0702   2.0724   2.0728   2.0773   2.0784
     2.1169   2.1214   2.1253   2.1323   2.1398   2.1443   2.1474   2.1536
     2.1551   2.1653   2.1690   2.1781   2.1850   2.2110   2.2255   2.2257
     2.2313   2.2420   2.2463   2.2656   2.2768   2.2967   2.2967   2.3148
     2.3241   2.3273   2.3535   2.3736   2.3810   2.3854   2.3899   2.3956
     2.4310   2.4615   2.4648   2.4724   2.4835   2.4917   2.5078   2.5118
     2.5381   2.5409   2.5441   2.5482   2.5540   2.5581   2.5642   2.5669
     2.6140   2.6195   2.6289   2.6292   2.6304   2.6524   2.6584   2.6609
     2.6675   2.6693   2.6922   2.6998   2.7069   2.7119   2.7157   2.7239
     2.7377   2.7393   2.7483   2.7570   2.7708   2.7713   2.7784   2.7820
     2.7845   2.7945   2.8460   2.8545   2.8606   2.8764   2.8768   2.8919
     2.9004   2.9034   2.9061   2.9061   2.9100   2.9157   2.9222   2.9260
     2.9345   2.9400   2.9495   2.9792   2.9840   2.9845   2.9883   2.9996
     3.0007   3.0147   3.0150   3.0276   3.0355   3.0381   3.0638   3.0639
     3.0838   3.0865   3.0905   3.0939   3.1008   3.1071   3.1079   3.1115
     3.1126   3.1138   3.1289   3.1294   3.1335   3.1353   3.1404   3.1474
     3.1686   3.1707   3.1747   3.1760   3.1784   3.1814   3.1820   3.1841
     3.2066   3.2170   3.2185   3.2299   3.2314   3.2437   3.2470   3.2587
     3.2750   3.3452   3.4180   3.4536   3.4843   3.4914   3.6143   3.6453
     3.6488   3.8966   3.9267   3.9505   3.9736   4.0600   4.2536   4.5560
     4.7103   4.8958   4.9302   5.1464   5.2380   5.3276   5.4454   6.0023
     6.0194   6.1400   6.2194   6.3704   6.4064   6.4097   6.5293   6.7509
     6.7941   7.0449   7.0466   7.0922   7.2204   7.2735   7.6424   7.9174
     7.9396   7.9647   8.0921   8.2128   8.3227   8.4099   8.4442   8.5036
     8.6442   8.7398   8.8847   8.8933   9.0023   9.0460   9.3133   9.4260
     9.4421   9.4983   9.5936   9.6682   9.8397   9.8758   9.9241  10.0284
    10.0697  10.1262  10.2071  10.2591  10.2983  10.4415  10.5648  10.5764
    10.5949  10.6112  10.6221  10.7200  10.7627  10.7989  10.8349  10.9023
    11.0682  11.0977  11.1042  11.1904  11.2066  11.2992  11.4660  11.4726
    11.5651  11.5801  11.6642  11.7470  11.8168  11.9023  11.9147  12.0472
    12.1158  12.1412  12.2270  12.2913  12.4326  12.4600  12.5708  12.5802
    12.6200  12.6864  12.7596  12.8059  12.8392  12.8650  12.9461  12.9929
    13.0086  13.0895  13.1419  13.1586  13.2374  13.3339  13.4063  13.4240
    13.5173  13.5644

          k = 0.2500 0.1443 0.0000 ( 61417 PWs)   bands (ev):

  -107.6475-107.6288-107.6255-107.6251-107.6231-107.6205-107.6205-107.6198
  -107.6185-107.6180-107.6176-107.6175-107.6168-107.6165-107.6162-107.6160
  -107.6149-107.6147-107.6144-107.6136-107.6119-107.6112-107.6111-107.6094
  -107.6064-107.6051-107.6044-107.6041-107.6029-107.6028-107.6020-107.6016
  -107.6008-107.6008-107.6005-107.5983-107.5983-107.5931-107.5803-107.4704
  -107.4678-107.4678-107.4227-107.4202-107.4202-107.3671-107.3642-107.3635
  -107.3626-107.3610-107.3609-107.3601-107.3585-107.3584 -65.0923 -65.0788
   -65.0733 -65.0720 -65.0712 -65.0711 -65.0701 -65.0684 -65.0677 -65.0661
   -65.0648 -65.0642 -65.0636 -65.0624 -65.0610 -65.0590 -65.0576 -65.0564
   -65.0562 -65.0550 -65.0530 -65.0528 -65.0522 -65.0514 -65.0505 -65.0499
   -65.0495 -65.0476 -65.0459 -65.0445 -65.0443 -65.0435 -65.0426 -65.0422
   -65.0408 -65.0397 -65.0394 -65.0384 -65.0383 -65.0367 -65.0364 -65.0362
   -65.0351 -65.0343 -65.0338 -65.0327 -65.0322 -65.0311 -65.0304 -65.0300
   -65.0294 -65.0290 -65.0278 -65.0269 -65.0267 -65.0266 -65.0260 -65.0256
   -65.0244 -65.0237 -65.0234 -65.0230 -65.0218 -65.0212 -65.0205 -65.0201
   -65.0196 -65.0188 -65.0177 -65.0176 -65.0173 -65.0166 -65.0155 -65.0153
   -65.0146 -65.0141 -65.0138 -65.0135 -65.0129 -65.0128 -65.0117 -65.0117
   -65.0110 -65.0108 -65.0104 -65.0094 -65.0091 -65.0086 -65.0085 -65.0075
   -65.0073 -65.0069 -65.0063 -65.0056 -65.0053 -65.0045 -65.0040 -65.0026
   -65.0021 -65.0014 -65.0009 -65.0000 -64.9998 -64.9994 -64.9987 -64.9987
   -64.9983 -64.9979 -64.9957 -64.9955 -64.9941 -64.9927 -64.9914 -64.9881
   -64.9853 -64.9852 -64.9840 -64.9164 -64.9155 -64.9147 -64.8999 -64.8897
   -64.8887 -64.8693 -64.8628 -64.8617 -64.8565 -64.8543 -64.8543 -64.8497
   -64.8413 -64.8399 -64.8330 -64.8279 -64.8274 -64.8258 -64.8254 -64.8145
   -64.8138 -64.8087 -64.8080 -64.8052 -64.8046 -64.8024 -64.8023 -64.7903
   -64.7900 -64.7889 -64.7862 -64.7853 -64.7817 -64.7778 -64.7746 -64.7387
   -64.7360 -64.7354 -64.7346 -64.7329 -64.7329 -64.7318 -64.7300 -64.7299
   -13.4765 -10.6994 -10.6966  -7.0636  -7.0551  -5.1010  -3.6865  -3.4630
    -3.1511  -3.1013  -2.5478  -2.4935  -2.2962  -2.0786  -1.7751  -1.5060
    -1.3700  -1.3603  -0.9441  -0.9013  -0.8658  -0.7255  -0.5742  -0.5417
    -0.3151  -0.3128  -0.2610  -0.2205  -0.1328  -0.1036  -0.0361  -0.0359
     0.0873   0.1214   0.1467   0.2248   0.2342   0.2427   0.3470   0.4099
     0.4366   0.4985   0.4991   0.6076   0.6812   0.6972   0.7367   0.7395
     0.7431   0.7725   0.7761   0.7792   0.8044   0.8218   0.8415   0.8435
     0.8504   0.8528   0.8890   0.8946   0.9156   0.9167   0.9328   0.9486
     0.9604   0.9763   0.9920   1.0246   1.0311   1.0318   1.0331   1.0483
     1.0499   1.0596   1.0641   1.0908   1.0996   1.1411   1.1965   1.1991
     1.2002   1.2284   1.2360   1.2441   1.2485   1.2750   1.2795   1.3132
     1.3202   1.3255   1.3918   1.3922   1.4036   1.4155   1.4295   1.4363
     1.4752   1.4768   1.4907   1.5131   1.5165   1.5213   1.5406   1.5936
     1.5945   1.5996   1.6045   1.6225   1.6470   1.6618   1.6731   1.6794
     1.6848   1.6986   1.7303   1.7315   1.7570   1.7867   1.8134   1.8149
     1.8150   1.8278   1.8293   1.8340   1.8593   1.8666   1.8797   1.8891
     1.8902   1.8925   1.8980   1.9015   1.9070   1.9238   1.9336   1.9517
     1.9552   1.9565   1.9631   1.9657   1.9663   1.9750   1.9768   1.9928
     1.9946   1.9987   2.0024   2.0058   2.0213   2.0238   2.0303   2.0358
     2.0363   2.0444   2.0459   2.0702   2.0724   2.0728   2.0773   2.0784
     2.1169   2.1214   2.1253   2.1323   2.1398   2.1443   2.1474   2.1536
     2.1551   2.1653   2.1690   2.1781   2.1850   2.2110   2.2255   2.2257
     2.2313   2.2420   2.2463   2.2656   2.2768   2.2967   2.2967   2.3148
     2.3241   2.3273   2.3535   2.3736   2.3810   2.3854   2.3899   2.3956
     2.4310   2.4615   2.4648   2.4724   2.4835   2.4917   2.5078   2.5118
     2.5381   2.5409   2.5441   2.5482   2.5540   2.5581   2.5642   2.5669
     2.6140   2.6195   2.6289   2.6292   2.6304   2.6524   2.6584   2.6609
     2.6675   2.6693   2.6922   2.6998   2.7069   2.7119   2.7157   2.7239
     2.7377   2.7393   2.7483   2.7570   2.7708   2.7713   2.7784   2.7820
     2.7845   2.7945   2.8460   2.8545   2.8606   2.8764   2.8768   2.8919
     2.9004   2.9034   2.9061   2.9061   2.9100   2.9157   2.9222   2.9260
     2.9345   2.9400   2.9495   2.9792   2.9840   2.9845   2.9883   2.9996
     3.0007   3.0147   3.0150   3.0276   3.0355   3.0381   3.0638   3.0639
     3.0838   3.0865   3.0905   3.0939   3.1008   3.1071   3.1079   3.1115
     3.1126   3.1138   3.1289   3.1294   3.1335   3.1353   3.1404   3.1474
     3.1686   3.1707   3.1747   3.1760   3.1784   3.1814   3.1820   3.1841
     3.2066   3.2170   3.2185   3.2299   3.2314   3.2437   3.2470   3.2587
     3.2750   3.3452   3.4180   3.4536   3.4843   3.4914   3.6143   3.6453
     3.6488   3.8966   3.9267   3.9505   3.9736   4.0600   4.2536   4.5560
     4.7103   4.8958   4.9302   5.1464   5.2380   5.3276   5.4454   6.0023
     6.0194   6.1400   6.2194   6.3704   6.4064   6.4097   6.5293   6.7509
     6.7941   7.0449   7.0466   7.0922   7.2204   7.2735   7.6424   7.9174
     7.9396   7.9647   8.0921   8.2128   8.3227   8.4099   8.4442   8.5036
     8.6442   8.7398   8.8847   8.8933   9.0023   9.0460   9.3133   9.4260
     9.4421   9.4983   9.5936   9.6682   9.8397   9.8758   9.9241  10.0284
    10.0697  10.1262  10.2071  10.2591  10.2983  10.4415  10.5648  10.5764
    10.5949  10.6112  10.6221  10.7200  10.7627  10.7989  10.8349  10.9023
    11.0682  11.0977  11.1042  11.1904  11.2066  11.2992  11.4660  11.4726
    11.5651  11.5801  11.6642  11.7470  11.8168  11.9023  11.9146  12.0472
    12.1158  12.1412  12.2270  12.2913  12.4326  12.4600  12.5708  12.5802
    12.6200  12.6864  12.7596  12.8059  12.8392  12.8650  12.9461  12.9929
    13.0086  13.0895  13.1419  13.1586  13.2374  13.3339  13.4063  13.4240
    13.5172  13.5644

          k = 0.5000-0.2887 0.0000 ( 61408 PWs)   bands (ev):

  -107.6475-107.6284-107.6260-107.6251-107.6232-107.6204-107.6203-107.6193
  -107.6186-107.6183-107.6178-107.6177-107.6168-107.6163-107.6161-107.6156
  -107.6152-107.6149-107.6144-107.6137-107.6118-107.6112-107.6110-107.6093
  -107.6065-107.6053-107.6045-107.6038-107.6032-107.6028-107.6020-107.6011
  -107.6009-107.6008-107.6006-107.5983-107.5983-107.5931-107.5803-107.4704
  -107.4678-107.4678-107.4227-107.4202-107.4202-107.3665-107.3650-107.3636
  -107.3628-107.3607-107.3607-107.3600-107.3586-107.3584 -65.0921 -65.0774
   -65.0763 -65.0743 -65.0739 -65.0719 -65.0702 -65.0691 -65.0688 -65.0673
   -65.0669 -65.0662 -65.0654 -65.0644 -65.0624 -65.0612 -65.0576 -65.0563
   -65.0563 -65.0549 -65.0541 -65.0533 -65.0529 -65.0525 -65.0520 -65.0504
   -65.0499 -65.0482 -65.0459 -65.0451 -65.0440 -65.0431 -65.0414 -65.0410
   -65.0400 -65.0388 -65.0376 -65.0371 -65.0360 -65.0344 -65.0337 -65.0334
   -65.0328 -65.0321 -65.0319 -65.0315 -65.0304 -65.0296 -65.0294 -65.0286
   -65.0281 -65.0271 -65.0264 -65.0257 -65.0256 -65.0252 -65.0246 -65.0240
   -65.0233 -65.0228 -65.0227 -65.0214 -65.0202 -65.0198 -65.0190 -65.0189
   -65.0188 -65.0180 -65.0176 -65.0171 -65.0170 -65.0161 -65.0155 -65.0154
   -65.0152 -65.0145 -65.0133 -65.0131 -65.0126 -65.0118 -65.0114 -65.0112
   -65.0106 -65.0105 -65.0100 -65.0096 -65.0088 -65.0087 -65.0080 -65.0077
   -65.0076 -65.0075 -65.0070 -65.0066 -65.0063 -65.0056 -65.0053 -65.0039
   -65.0037 -65.0026 -65.0018 -65.0013 -65.0008 -64.9999 -64.9995 -64.9989
   -64.9986 -64.9984 -64.9975 -64.9971 -64.9962 -64.9943 -64.9943 -64.9896
   -64.9870 -64.9867 -64.9844 -64.9170 -64.9146 -64.9142 -64.9005 -64.8908
   -64.8889 -64.8673 -64.8616 -64.8600 -64.8565 -64.8543 -64.8543 -64.8507
   -64.8436 -64.8402 -64.8372 -64.8302 -64.8296 -64.8285 -64.8280 -64.8108
   -64.8102 -64.8046 -64.8024 -64.8023 -64.7988 -64.7986 -64.7979 -64.7970
   -64.7906 -64.7900 -64.7890 -64.7865 -64.7863 -64.7784 -64.7769 -64.7382
   -64.7367 -64.7355 -64.7347 -64.7327 -64.7326 -64.7317 -64.7301 -64.7299
   -13.4757 -10.7029 -10.6975  -7.0670  -7.0501  -5.0697  -3.4331  -3.1554
    -3.0687  -3.0623  -2.6423  -2.5445  -2.5030  -2.4218  -1.9913  -1.5590
    -1.5266  -1.5251  -1.3643  -1.0297  -1.0053  -0.6419  -0.5375  -0.5258
    -0.3985  -0.3374  -0.2631   0.0837   0.2075   0.2723   0.2745   0.2892
     0.2903   0.2947   0.2966   0.3512   0.3650   0.4484   0.4551   0.4672
     0.4712   0.4845   0.4859   0.4906   0.4909   0.5314   0.5336   0.5408
     0.5411   0.6348   0.6694   0.6751   0.6982   0.7027   0.7051   0.7788
     0.7832   0.8401   0.8834   0.8885   0.8894   0.8908   0.8966   0.9231
     0.9251   0.9321   0.9331   0.9791   0.9899   1.0583   1.0597   1.0626
     1.0734   1.0845   1.0932   1.1499   1.1603   1.1611   1.1827   1.1830
     1.2211   1.2219   1.2596   1.2597   1.3098   1.3099   1.3158   1.3283
     1.3856   1.3865   1.4251   1.4274   1.4275   1.4339   1.4409   1.4540
     1.4662   1.4667   1.4945   1.5253   1.5287   1.5634   1.5685   1.5890
     1.5919   1.5988   1.6005   1.6170   1.6188   1.6224   1.6252   1.6630
     1.6718   1.6751   1.6817   1.6818   1.6948   1.7161   1.7276   1.7389
     1.7410   1.7488   1.7561   1.7570   1.7606   1.7723   1.7878   1.8275
     1.8496   1.8528   1.8548   1.8667   1.8748   1.8993   1.9018   1.9054
     1.9072   1.9093   1.9153   1.9273   1.9327   1.9435   1.9734   1.9749
     1.9754   1.9786   1.9914   1.9991   2.0033   2.0101   2.0365   2.0435
     2.0465   2.0534   2.0564   2.0644   2.0670   2.0729   2.0757   2.0902
     2.0999   2.1272   2.1451   2.1496   2.1882   2.1897   2.1919   2.1933
     2.1991   2.2030   2.2069   2.2109   2.2120   2.2189   2.2314   2.2356
     2.2369   2.2428   2.2487   2.2497   2.2528   2.2553   2.2555   2.3152
     2.3261   2.3298   2.3490   2.3608   2.3637   2.3743   2.3881   2.4053
     2.4074   2.4148   2.4176   2.4242   2.4358   2.4398   2.4586   2.4768
     2.4779   2.4824   2.4866   2.4959   2.5009   2.5192   2.5200   2.5239
     2.5286   2.5337   2.5393   2.5418   2.5470   2.5662   2.5664   2.6413
     2.6557   2.6655   2.6723   2.6833   2.6848   2.7009   2.7044   2.7219
     2.7258   2.7461   2.7507   2.7600   2.7717   2.7768   2.7843   2.7961
     2.7965   2.8047   2.8119   2.8153   2.8212   2.8328   2.8444   2.8465
     2.8592   2.8711   2.8758   2.9029   2.9032   2.9104   2.9126   2.9145
     2.9182   2.9220   2.9353   2.9582   2.9636   2.9858   2.9894   2.9980
     2.9984   3.0159   3.0279   3.0393   3.0415   3.0728   3.0733   3.0909
     3.1054   3.1167   3.1193   3.1348   3.1349   3.1382   3.1387   3.1401
     3.1411   3.1525   3.1762   3.1780   3.1788   3.1791   3.1799   3.1915
     3.1958   3.2022   3.2087   3.2164   3.2289   3.2289   3.2327   3.2362
     3.2379   3.2783   3.2807   3.2922   3.2925   3.2967   3.2987   3.3035
     3.3143   3.3238   3.4252   3.9056   3.9895   4.0134   4.0685   4.4348
     4.5019   4.5051   4.5055   4.5076   4.7444   4.7623   4.7656   4.7685
     5.0465   5.1045   5.1909   5.2349   5.2381   5.2991   5.3503   5.3898
     5.4777   5.5806   5.8976   6.0071   6.1354   6.1721   6.2607   6.2998
     6.3226   6.3689   6.4106   6.6994   6.8171   6.9292   7.0256   7.5825
     7.6194   7.6466   7.7836   7.8828   8.0231   8.3800   8.4104   8.4793
     8.7284   8.7428   8.7693   8.8276   8.9415   9.0363   9.0671   9.2577
     9.3656   9.3958   9.3997   9.4226   9.4682   9.5129   9.5983   9.7339
     9.8041   9.9006   9.9841  10.0762  10.1298  10.2443  10.2995  10.4014
    10.4252  10.5614  10.6489  10.6810  10.7300  10.7911  10.9499  11.0428
    11.0799  11.1048  11.2344  11.2528  11.2927  11.4212  11.4446  11.5111
    11.8193  11.8343  11.9216  12.0575  12.1705  12.2308  12.2696  12.4038
    12.4067  12.4453  12.5075  12.7201  12.7531  12.8016  12.8152  12.8832
    12.9072  13.0565  13.1492  13.1618  13.2554  13.3419  13.3848  13.3967
    13.4278  13.4550  13.4658  13.4885  13.4928  13.6587  13.6601  13.7107
    13.9059  13.9099

          k =-0.5000-0.2887 0.0000 ( 61408 PWs)   bands (ev):

  -107.6475-107.6284-107.6260-107.6251-107.6232-107.6204-107.6203-107.6193
  -107.6186-107.6183-107.6178-107.6177-107.6168-107.6163-107.6161-107.6156
  -107.6152-107.6149-107.6144-107.6137-107.6118-107.6112-107.6110-107.6093
  -107.6065-107.6053-107.6045-107.6038-107.6032-107.6028-107.6020-107.6011
  -107.6009-107.6008-107.6006-107.5983-107.5983-107.5931-107.5803-107.4704
  -107.4678-107.4678-107.4227-107.4202-107.4202-107.3665-107.3650-107.3636
  -107.3628-107.3607-107.3607-107.3600-107.3586-107.3584 -65.0921 -65.0774
   -65.0763 -65.0743 -65.0739 -65.0719 -65.0702 -65.0691 -65.0688 -65.0673
   -65.0669 -65.0662 -65.0654 -65.0644 -65.0624 -65.0612 -65.0576 -65.0563
   -65.0563 -65.0549 -65.0541 -65.0533 -65.0529 -65.0525 -65.0520 -65.0504
   -65.0499 -65.0482 -65.0459 -65.0451 -65.0440 -65.0431 -65.0414 -65.0410
   -65.0400 -65.0388 -65.0376 -65.0371 -65.0360 -65.0344 -65.0337 -65.0334
   -65.0328 -65.0321 -65.0319 -65.0315 -65.0304 -65.0296 -65.0294 -65.0286
   -65.0281 -65.0271 -65.0264 -65.0257 -65.0256 -65.0252 -65.0246 -65.0240
   -65.0233 -65.0228 -65.0227 -65.0214 -65.0202 -65.0198 -65.0190 -65.0189
   -65.0188 -65.0180 -65.0176 -65.0171 -65.0170 -65.0161 -65.0155 -65.0154
   -65.0152 -65.0145 -65.0133 -65.0131 -65.0126 -65.0118 -65.0114 -65.0112
   -65.0106 -65.0105 -65.0100 -65.0096 -65.0088 -65.0087 -65.0080 -65.0077
   -65.0076 -65.0075 -65.0070 -65.0066 -65.0063 -65.0056 -65.0053 -65.0039
   -65.0037 -65.0026 -65.0018 -65.0013 -65.0008 -64.9999 -64.9995 -64.9989
   -64.9986 -64.9984 -64.9975 -64.9971 -64.9962 -64.9943 -64.9943 -64.9896
   -64.9870 -64.9867 -64.9844 -64.9170 -64.9146 -64.9142 -64.9005 -64.8908
   -64.8889 -64.8673 -64.8616 -64.8600 -64.8565 -64.8543 -64.8543 -64.8507
   -64.8436 -64.8402 -64.8372 -64.8302 -64.8296 -64.8285 -64.8280 -64.8108
   -64.8102 -64.8046 -64.8024 -64.8023 -64.7988 -64.7986 -64.7979 -64.7970
   -64.7906 -64.7900 -64.7890 -64.7865 -64.7863 -64.7784 -64.7769 -64.7382
   -64.7367 -64.7355 -64.7347 -64.7327 -64.7326 -64.7317 -64.7301 -64.7299
   -13.4757 -10.7030 -10.6974  -7.0670  -7.0502  -5.0697  -3.4331  -3.1554
    -3.0687  -3.0623  -2.6423  -2.5445  -2.5029  -2.4219  -1.9913  -1.5591
    -1.5266  -1.5251  -1.3643  -1.0297  -1.0053  -0.6420  -0.5374  -0.5258
    -0.3985  -0.3374  -0.2631   0.0837   0.2074   0.2723   0.2745   0.2892
     0.2903   0.2947   0.2966   0.3512   0.3650   0.4484   0.4551   0.4672
     0.4712   0.4845   0.4859   0.4906   0.4909   0.5314   0.5336   0.5408
     0.5411   0.6347   0.6694   0.6751   0.6982   0.7027   0.7051   0.7788
     0.7832   0.8401   0.8834   0.8885   0.8894   0.8908   0.8966   0.9231
     0.9251   0.9321   0.9331   0.9791   0.9899   1.0583   1.0597   1.0626
     1.0734   1.0845   1.0932   1.1499   1.1603   1.1611   1.1827   1.1830
     1.2211   1.2219   1.2596   1.2597   1.3098   1.3099   1.3158   1.3283
     1.3856   1.3865   1.4251   1.4274   1.4275   1.4339   1.4409   1.4540
     1.4662   1.4667   1.4945   1.5253   1.5287   1.5634   1.5685   1.5890
     1.5919   1.5988   1.6005   1.6170   1.6188   1.6224   1.6252   1.6630
     1.6718   1.6751   1.6817   1.6818   1.6948   1.7161   1.7276   1.7389
     1.7410   1.7488   1.7561   1.7570   1.7606   1.7723   1.7878   1.8275
     1.8496   1.8528   1.8548   1.8667   1.8748   1.8993   1.9018   1.9054
     1.9072   1.9093   1.9153   1.9273   1.9327   1.9435   1.9734   1.9749
     1.9754   1.9786   1.9914   1.9991   2.0033   2.0101   2.0365   2.0435
     2.0465   2.0534   2.0564   2.0644   2.0670   2.0729   2.0757   2.0902
     2.0999   2.1272   2.1451   2.1496   2.1882   2.1897   2.1919   2.1933
     2.1992   2.2030   2.2069   2.2109   2.2120   2.2189   2.2314   2.2356
     2.2369   2.2428   2.2487   2.2497   2.2528   2.2553   2.2555   2.3152
     2.3261   2.3298   2.3490   2.3608   2.3637   2.3743   2.3881   2.4053
     2.4074   2.4148   2.4176   2.4242   2.4358   2.4398   2.4586   2.4768
     2.4779   2.4824   2.4866   2.4959   2.5009   2.5192   2.5200   2.5239
     2.5286   2.5337   2.5393   2.5418   2.5470   2.5662   2.5664   2.6413
     2.6557   2.6655   2.6722   2.6833   2.6848   2.7009   2.7044   2.7219
     2.7258   2.7461   2.7507   2.7600   2.7717   2.7768   2.7843   2.7961
     2.7965   2.8047   2.8119   2.8153   2.8212   2.8328   2.8444   2.8465
     2.8592   2.8711   2.8758   2.9029   2.9032   2.9104   2.9126   2.9145
     2.9182   2.9220   2.9353   2.9582   2.9636   2.9858   2.9894   2.9980
     2.9984   3.0159   3.0279   3.0393   3.0415   3.0728   3.0733   3.0909
     3.1054   3.1167   3.1193   3.1348   3.1349   3.1382   3.1387   3.1401
     3.1411   3.1525   3.1762   3.1780   3.1788   3.1791   3.1799   3.1915
     3.1958   3.2022   3.2087   3.2164   3.2289   3.2289   3.2327   3.2362
     3.2379   3.2783   3.2807   3.2922   3.2925   3.2967   3.2987   3.3035
     3.3143   3.3238   3.4252   3.9056   3.9895   4.0134   4.0685   4.4348
     4.5019   4.5051   4.5055   4.5076   4.7444   4.7623   4.7656   4.7685
     5.0465   5.1045   5.1909   5.2349   5.2381   5.2991   5.3503   5.3898
     5.4777   5.5806   5.8976   6.0071   6.1354   6.1721   6.2607   6.2998
     6.3226   6.3689   6.4106   6.6994   6.8171   6.9292   7.0256   7.5825
     7.6194   7.6466   7.7836   7.8828   8.0231   8.3800   8.4104   8.4793
     8.7284   8.7428   8.7693   8.8276   8.9415   9.0363   9.0671   9.2577
     9.3656   9.3958   9.3997   9.4226   9.4682   9.5129   9.5983   9.7339
     9.8042   9.9006   9.9841  10.0762  10.1298  10.2443  10.2995  10.4014
    10.4252  10.5614  10.6489  10.6810  10.7300  10.7911  10.9499  11.0427
    11.0799  11.1048  11.2344  11.2528  11.2927  11.4212  11.4446  11.5111
    11.8193  11.8343  11.9216  12.0575  12.1705  12.2309  12.2695  12.4038
    12.4067  12.4453  12.5075  12.7201  12.7531  12.8016  12.8152  12.8832
    12.9072  13.0565  13.1492  13.1618  13.2554  13.3419  13.3848  13.3967
    13.4278  13.4550  13.4658  13.4885  13.4928  13.6587  13.6600  13.7107
    13.9058  13.9099

          k =-0.2500-0.7217 0.0000 ( 61343 PWs)   bands (ev):

  -107.6475-107.6284-107.6258-107.6254-107.6232-107.6204-107.6203-107.6193
  -107.6184-107.6183-107.6179-107.6177-107.6170-107.6161-107.6160-107.6158
  -107.6152-107.6148-107.6145-107.6137-107.6118-107.6112-107.6110-107.6093
  -107.6065-107.6053-107.6044-107.6039-107.6032-107.6029-107.6017-107.6014
  -107.6008-107.6008-107.6006-107.5983-107.5983-107.5931-107.5803-107.4704
  -107.4678-107.4678-107.4227-107.4202-107.4202-107.3665-107.3647-107.3641
  -107.3624-107.3607-107.3606-107.3601-107.3586-107.3584 -65.0921 -65.0775
   -65.0753 -65.0740 -65.0735 -65.0726 -65.0718 -65.0708 -65.0694 -65.0675
   -65.0665 -65.0660 -65.0635 -65.0615 -65.0610 -65.0609 -65.0596 -65.0587
   -65.0557 -65.0555 -65.0543 -65.0538 -65.0526 -65.0520 -65.0509 -65.0504
   -65.0493 -65.0481 -65.0465 -65.0460 -65.0436 -65.0427 -65.0423 -65.0415
   -65.0391 -65.0383 -65.0376 -65.0371 -65.0360 -65.0357 -65.0347 -65.0339
   -65.0335 -65.0326 -65.0323 -65.0312 -65.0307 -65.0298 -65.0282 -65.0279
   -65.0268 -65.0265 -65.0258 -65.0255 -65.0252 -65.0249 -65.0243 -65.0239
   -65.0236 -65.0229 -65.0224 -65.0211 -65.0207 -65.0203 -65.0195 -65.0193
   -65.0190 -65.0177 -65.0173 -65.0168 -65.0163 -65.0158 -65.0154 -65.0150
   -65.0145 -65.0139 -65.0137 -65.0134 -65.0128 -65.0122 -65.0119 -65.0110
   -65.0110 -65.0107 -65.0101 -65.0099 -65.0097 -65.0088 -65.0086 -65.0081
   -65.0079 -65.0074 -65.0070 -65.0063 -65.0060 -65.0056 -65.0051 -65.0040
   -65.0033 -65.0027 -65.0021 -65.0017 -65.0011 -65.0003 -64.9990 -64.9988
   -64.9986 -64.9984 -64.9979 -64.9971 -64.9965 -64.9931 -64.9921 -64.9907
   -64.9872 -64.9863 -64.9850 -64.9163 -64.9152 -64.9143 -64.9005 -64.8905
   -64.8893 -64.8666 -64.8621 -64.8605 -64.8565 -64.8543 -64.8543 -64.8505
   -64.8430 -64.8407 -64.8353 -64.8344 -64.8319 -64.8252 -64.8217 -64.8209
   -64.8046 -64.8024 -64.8023 -64.8022 -64.8002 -64.7990 -64.7985 -64.7935
   -64.7930 -64.7926 -64.7916 -64.7856 -64.7813 -64.7807 -64.7768 -64.7383
   -64.7365 -64.7359 -64.7345 -64.7327 -64.7326 -64.7318 -64.7301 -64.7299
   -13.4757 -10.7016 -10.6987  -7.0626  -7.0545  -5.0700  -3.4326  -3.2692
    -3.1551  -2.7236  -2.5752  -2.5476  -2.4588  -2.4415  -2.1163  -1.8858
    -1.8292  -1.5535  -1.0508  -0.9735  -0.6183  -0.6037  -0.5496  -0.4454
    -0.4420  -0.1281  -0.1039  -0.0742  -0.0465   0.1380   0.1436   0.1506
     0.2803   0.3095   0.3394   0.3407   0.3486   0.3967   0.4046   0.4099
     0.4316   0.5122   0.5134   0.5327   0.5344   0.5455   0.5698   0.6435
     0.6667   0.6806   0.6903   0.7136   0.7268   0.7291   0.7323   0.7407
     0.7556   0.7667   0.8323   0.8435   0.8521   0.8671   0.8739   0.9034
     0.9057   0.9250   0.9356   0.9557   1.0013   1.0105   1.0203   1.0392
     1.0434   1.1016   1.1214   1.1608   1.1802   1.1852   1.1922   1.1983
     1.2728   1.2810   1.2867   1.2905   1.2970   1.3042   1.3368   1.3519
     1.3618   1.4157   1.4185   1.4305   1.4361   1.4467   1.4533   1.4565
     1.4640   1.5074   1.5097   1.5165   1.5221   1.5307   1.5425   1.5595
     1.5648   1.5746   1.5791   1.6061   1.6122   1.6162   1.6274   1.6349
     1.6422   1.6723   1.7129   1.7159   1.7168   1.7233   1.7314   1.7401
     1.7604   1.7713   1.7862   1.8040   1.8111   1.8133   1.8204   1.8219
     1.8320   1.8350   1.8498   1.8601   1.8625   1.8821   1.8988   1.9001
     1.9052   1.9175   1.9246   1.9382   1.9399   1.9537   1.9562   1.9638
     1.9675   1.9717   1.9780   1.9926   2.0052   2.0342   2.0387   2.0418
     2.0483   2.0563   2.0669   2.0704   2.0771   2.0824   2.0838   2.0878
     2.0933   2.0989   2.1019   2.1062   2.1340   2.1378   2.1412   2.1454
     2.1713   2.1741   2.1774   2.1822   2.1880   2.1927   2.1955   2.1968
     2.1974   2.1988   2.2509   2.2544   2.2904   2.3173   2.3204   2.3243
     2.3332   2.3358   2.3430   2.3514   2.3681   2.3802   2.3931   2.4065
     2.4214   2.4233   2.4545   2.4583   2.4648   2.4775   2.4781   2.4883
     2.4946   2.4972   2.4996   2.5050   2.5064   2.5121   2.5219   2.5346
     2.5373   2.5657   2.5769   2.5815   2.5834   2.5979   2.6086   2.6155
     2.6255   2.6386   2.6465   2.6492   2.6553   2.6633   2.7006   2.7021
     2.7058   2.7155   2.7172   2.7361   2.7423   2.7691   2.7775   2.7827
     2.7913   2.7962   2.8076   2.8157   2.8343   2.8365   2.8416   2.8508
     2.8586   2.8616   2.8664   2.8701   2.8771   2.8857   2.9146   2.9329
     2.9395   2.9459   2.9529   2.9724   2.9889   2.9934   3.0062   3.0186
     3.0338   3.0535   3.0624   3.0690   3.0724   3.0780   3.0821   3.1048
     3.1102   3.1179   3.1206   3.1252   3.1300   3.1343   3.1378   3.1410
     3.1462   3.1474   3.1516   3.1534   3.1592   3.1663   3.1672   3.1724
     3.1794   3.1907   3.1923   3.2025   3.2162   3.2253   3.2301   3.2378
     3.2413   3.2551   3.2577   3.2677   3.2961   3.3162   3.3185   3.4930
     3.5402   3.5805   3.5831   3.6684   3.6789   3.8431   3.9991   4.0177
     4.4078   4.4723   4.4873   4.4891   4.5134   4.7578   4.8296   4.8683
     4.8869   4.9196   5.1455   5.2908   5.3348   5.3631   5.8035   5.8138
     5.8797   5.9385   6.0469   6.1068   6.1092   6.2595   6.2750   6.3246
     6.4158   6.6274   6.6420   6.8135   6.9471   7.0044   7.0711   7.2160
     7.2727   7.2801   7.3466   7.5667   7.6983   7.8057   8.0846   8.1746
     8.4707   8.6590   8.6745   8.7325   8.7817   8.8518   9.1284   9.1717
     9.3152   9.3819   9.4290   9.5495   9.5863   9.6343   9.7614   9.8127
     9.8688  10.0302  10.1592  10.2087  10.2331  10.4062  10.4343  10.5773
    10.5986  10.6649  10.8341  10.9305  11.0470  11.0820  11.1163  11.1456
    11.2252  11.3406  11.4196  11.6080  11.6423  11.6717  11.7244  11.7704
    11.8277  11.9115  11.9359  11.9611  12.0442  12.1356  12.1851  12.2681
    12.3135  12.3685  12.4792  12.5217  12.5726  12.6781  12.7041  12.7764
    12.7829  12.8175  12.9360  12.9430  12.9929  13.1125  13.2025  13.2199
    13.3447  13.3965  13.4022  13.4297  13.5530  13.5926  13.6970  13.7361
    13.7778  13.8091

          k =-0.5000-0.5774 0.0000 ( 61343 PWs)   bands (ev):

  -107.6475-107.6284-107.6258-107.6254-107.6232-107.6204-107.6203-107.6193
  -107.6184-107.6183-107.6179-107.6177-107.6170-107.6161-107.6159-107.6158
  -107.6152-107.6148-107.6145-107.6137-107.6118-107.6112-107.6110-107.6093
  -107.6065-107.6053-107.6044-107.6039-107.6032-107.6029-107.6017-107.6014
  -107.6008-107.6008-107.6006-107.5983-107.5983-107.5931-107.5803-107.4704
  -107.4678-107.4678-107.4227-107.4202-107.4202-107.3665-107.3647-107.3641
  -107.3624-107.3607-107.3606-107.3601-107.3586-107.3584 -65.0921 -65.0775
   -65.0753 -65.0740 -65.0735 -65.0726 -65.0718 -65.0708 -65.0694 -65.0675
   -65.0665 -65.0660 -65.0635 -65.0615 -65.0610 -65.0609 -65.0596 -65.0587
   -65.0557 -65.0555 -65.0543 -65.0538 -65.0526 -65.0520 -65.0509 -65.0504
   -65.0493 -65.0481 -65.0465 -65.0460 -65.0436 -65.0427 -65.0423 -65.0415
   -65.0391 -65.0383 -65.0376 -65.0371 -65.0360 -65.0357 -65.0347 -65.0339
   -65.0335 -65.0326 -65.0323 -65.0312 -65.0307 -65.0298 -65.0282 -65.0279
   -65.0268 -65.0265 -65.0258 -65.0255 -65.0252 -65.0249 -65.0243 -65.0239
   -65.0236 -65.0229 -65.0224 -65.0211 -65.0207 -65.0203 -65.0195 -65.0193
   -65.0190 -65.0177 -65.0173 -65.0168 -65.0163 -65.0158 -65.0154 -65.0150
   -65.0145 -65.0139 -65.0137 -65.0134 -65.0128 -65.0122 -65.0119 -65.0110
   -65.0110 -65.0107 -65.0101 -65.0099 -65.0097 -65.0088 -65.0086 -65.0081
   -65.0079 -65.0074 -65.0070 -65.0063 -65.0060 -65.0056 -65.0051 -65.0040
   -65.0033 -65.0027 -65.0021 -65.0017 -65.0011 -65.0003 -64.9990 -64.9988
   -64.9986 -64.9984 -64.9979 -64.9971 -64.9965 -64.9931 -64.9921 -64.9907
   -64.9872 -64.9863 -64.9850 -64.9163 -64.9152 -64.9143 -64.9005 -64.8905
   -64.8893 -64.8666 -64.8621 -64.8604 -64.8565 -64.8543 -64.8543 -64.8505
   -64.8430 -64.8407 -64.8353 -64.8344 -64.8319 -64.8252 -64.8217 -64.8209
   -64.8046 -64.8024 -64.8023 -64.8022 -64.8002 -64.7990 -64.7985 -64.7935
   -64.7930 -64.7926 -64.7916 -64.7856 -64.7813 -64.7807 -64.7768 -64.7383
   -64.7365 -64.7359 -64.7345 -64.7327 -64.7326 -64.7318 -64.7301 -64.7299
   -13.4757 -10.7015 -10.6989  -7.0629  -7.0542  -5.0700  -3.4326  -3.2692
    -3.1551  -2.7236  -2.5752  -2.5476  -2.4588  -2.4415  -2.1163  -1.8858
    -1.8292  -1.5535  -1.0508  -0.9735  -0.6182  -0.6036  -0.5497  -0.4454
    -0.4420  -0.1281  -0.1039  -0.0742  -0.0465   0.1380   0.1436   0.1506
     0.2803   0.3095   0.3394   0.3407   0.3486   0.3967   0.4046   0.4099
     0.4316   0.5122   0.5134   0.5327   0.5344   0.5455   0.5698   0.6435
     0.6667   0.6806   0.6903   0.7136   0.7268   0.7291   0.7323   0.7407
     0.7556   0.7667   0.8323   0.8435   0.8521   0.8671   0.8739   0.9034
     0.9057   0.9250   0.9356   0.9557   1.0013   1.0105   1.0203   1.0392
     1.0434   1.1016   1.1214   1.1608   1.1802   1.1852   1.1922   1.1983
     1.2728   1.2810   1.2867   1.2905   1.2970   1.3042   1.3368   1.3519
     1.3618   1.4157   1.4185   1.4305   1.4361   1.4467   1.4533   1.4565
     1.4640   1.5074   1.5097   1.5165   1.5221   1.5307   1.5425   1.5595
     1.5648   1.5747   1.5791   1.6061   1.6122   1.6162   1.6274   1.6349
     1.6422   1.6723   1.7129   1.7159   1.7168   1.7233   1.7314   1.7401
     1.7604   1.7713   1.7862   1.8040   1.8111   1.8134   1.8204   1.8219
     1.8320   1.8350   1.8498   1.8601   1.8625   1.8821   1.8989   1.9001
     1.9052   1.9175   1.9246   1.9382   1.9399   1.9537   1.9562   1.9638
     1.9675   1.9717   1.9780   1.9926   2.0052   2.0342   2.0387   2.0418
     2.0483   2.0563   2.0669   2.0704   2.0771   2.0824   2.0838   2.0878
     2.0933   2.0989   2.1019   2.1062   2.1340   2.1378   2.1412   2.1454
     2.1713   2.1741   2.1774   2.1822   2.1880   2.1927   2.1955   2.1968
     2.1974   2.1988   2.2509   2.2544   2.2904   2.3173   2.3204   2.3243
     2.3332   2.3358   2.3430   2.3514   2.3681   2.3802   2.3931   2.4065
     2.4214   2.4233   2.4545   2.4583   2.4648   2.4775   2.4781   2.4883
     2.4946   2.4972   2.4996   2.5050   2.5064   2.5121   2.5219   2.5346
     2.5373   2.5657   2.5769   2.5815   2.5834   2.5979   2.6086   2.6155
     2.6255   2.6386   2.6465   2.6492   2.6553   2.6633   2.7006   2.7021
     2.7058   2.7155   2.7172   2.7361   2.7423   2.7691   2.7775   2.7827
     2.7913   2.7962   2.8076   2.8157   2.8343   2.8365   2.8416   2.8508
     2.8586   2.8616   2.8664   2.8701   2.8771   2.8857   2.9146   2.9329
     2.9395   2.9459   2.9529   2.9724   2.9889   2.9934   3.0062   3.0186
     3.0338   3.0535   3.0624   3.0690   3.0724   3.0780   3.0821   3.1048
     3.1102   3.1179   3.1206   3.1252   3.1300   3.1343   3.1378   3.1410
     3.1462   3.1474   3.1516   3.1534   3.1592   3.1663   3.1672   3.1724
     3.1794   3.1907   3.1923   3.2025   3.2162   3.2253   3.2301   3.2378
     3.2413   3.2551   3.2577   3.2677   3.2961   3.3162   3.3185   3.4930
     3.5402   3.5805   3.5831   3.6684   3.6789   3.8431   3.9991   4.0177
     4.4078   4.4723   4.4873   4.4891   4.5134   4.7578   4.8296   4.8683
     4.8869   4.9196   5.1455   5.2908   5.3348   5.3631   5.8035   5.8138
     5.8797   5.9385   6.0469   6.1068   6.1092   6.2595   6.2750   6.3246
     6.4158   6.6273   6.6420   6.8135   6.9471   7.0044   7.0710   7.2160
     7.2727   7.2801   7.3466   7.5667   7.6983   7.8057   8.0846   8.1746
     8.4706   8.6590   8.6745   8.7325   8.7817   8.8518   9.1283   9.1716
     9.3152   9.3819   9.4290   9.5495   9.5863   9.6343   9.7614   9.8128
     9.8689  10.0301  10.1592  10.2087  10.2331  10.4062  10.4343  10.5773
    10.5986  10.6649  10.8341  10.9305  11.0470  11.0820  11.1163  11.1456
    11.2253  11.3407  11.4196  11.6080  11.6424  11.6717  11.7244  11.7704
    11.8277  11.9115  11.9359  11.9611  12.0442  12.1355  12.1851  12.2681
    12.3136  12.3685  12.4792  12.5217  12.5726  12.6780  12.7041  12.7765
    12.7828  12.8175  12.9360  12.9430  12.9929  13.1125  13.2025  13.2199
    13.3447  13.3966  13.4022  13.4297  13.5531  13.5926  13.6971  13.7361
    13.7777  13.8091

     the Fermi energy is     4.8126 ev

!    total energy              =  -21903.71789978 Ry
     Harris-Foulkes estimate   =  -21903.71789982 Ry
     estimated scf accuracy    <          5.9E-09 Ry

     The total energy is the sum of the following terms:

     one-electron contribution = -210174.79046189 Ry
     hartree contribution      =  105296.60450916 Ry
     xc contribution           =   -2143.40470450 Ry
     ewald contribution        =   85117.92700310 Ry
     smearing contrib. (-TS)   =      -0.05424565 Ry

     convergence has been achieved in  39 iterations
 
     init_run     :     76.97s CPU     79.58s WALL (       1 calls)
     electrons    :  18909.42s CPU  19256.03s WALL (       1 calls)

     Called by init_run:
     wfcinit      :     67.29s CPU     69.17s WALL (       1 calls)
     potinit      :      6.51s CPU      6.74s WALL (       1 calls)
     hinit0       :      1.30s CPU      1.32s WALL (       1 calls)

     Called by electrons:
     c_bands      :  17729.41s CPU  18006.44s WALL (      39 calls)
     sum_band     :    886.45s CPU    926.84s WALL (      39 calls)
     v_of_rho     :    240.41s CPU    250.11s WALL (      40 calls)
     newd         :     48.49s CPU     68.31s WALL (      40 calls)
     mix_rho      :      7.02s CPU      7.18s WALL (      39 calls)

     Called by c_bands:
     init_us_2    :     17.49s CPU     17.62s WALL (     790 calls)
     cegterg      :  17596.50s CPU  17868.02s WALL (     390 calls)

     Called by sum_band:
     sum_band:bec :      3.07s CPU      3.08s WALL (     390 calls)
     addusdens    :     41.17s CPU     65.40s WALL (      39 calls)

     Called by *egterg:
     h_psi        :   3993.06s CPU   4082.36s WALL (    2015 calls)
     s_psi        :    393.50s CPU    393.81s WALL (    2015 calls)
     g_psi        :      7.05s CPU      7.08s WALL (    1615 calls)
     cdiaghg      :  10821.62s CPU  10903.87s WALL (    2005 calls)

     Called by h_psi:
     h_psi:pot    :   3982.13s CPU   4053.15s WALL (    2015 calls)
     h_psi:calbec :    449.34s CPU    450.41s WALL (    2015 calls)
     vloc_psi     :   3137.60s CPU   3206.60s WALL (    2015 calls)
     add_vuspsi   :    395.17s CPU    396.13s WALL (    2015 calls)

     General routines
     calbec       :    609.17s CPU    610.48s WALL (    2405 calls)
     fft          :    214.97s CPU    216.87s WALL (    2519 calls)
     ffts         :      0.76s CPU      0.78s WALL (      79 calls)
     fftw         :   3436.06s CPU   3513.52s WALL ( 1543714 calls)
     interpolate  :      3.47s CPU      3.51s WALL (      40 calls)
 
     Parallel routines
     fft_scatt_xy :    326.72s CPU    329.43s WALL ( 1546312 calls)
     fft_scatt_yz :   2346.25s CPU   2408.73s WALL ( 1546312 calls)
 
     PWSCF        :     5h16m CPU       16h 5m WALL

      22h
 
   This run was terminated on:   3:47:32  26Nov2019            

=------------------------------------------------------------------------------=
   JOB DONE.
=------------------------------------------------------------------------------=
