
     Program PWSCF v.6.3MaX starts on 19Nov2019 at  4:22:51 

     This program is part of the open-source Quantum ESPRESSO suite
     for quantum simulation of materials; please cite
         "P. Giannozzi et al., J. Phys.:Condens. Matter 21 395502 (2009);
         "P. Giannozzi et al., J. Phys.:Condens. Matter 29 465901 (2017);
          URL http://www.quantum-espresso.org", 
     in publications or presentations arising from this work. More details at
     http://www.quantum-espresso.org/quote

     Parallel version (MPI), running on    16 processors

     MPI processes distributed on     2 nodes
     R & G space division:  proc/nbgrp/npool/nimage =      16
     Waiting for input...
     Reading input from standard input

     Current dimensions of program PWSCF are:
     Max number of different atomic species (ntypx) = 10
     Max number of k-points (npk) =  40000
     Max angular momentum in pseudopotentials (lmaxx) =  3
     Message from routine iosys:
     minimal I/O required, wf_collect reset to FALSE

     IMPORTANT: XC functional enforced from input :
     Exchange-correlation      = VDW-DF ( 1  4  4  0 1 0)
     Any further DFT definition will be discarded
     Please, verify this is what you really want


     Subspace diagonalization in iterative solution of the eigenvalue problem:
     one sub-group per band group will be used
     scalapack distributed-memory algorithm (size of sub-group:  2*  2 procs)

 
     Parallelization info
     --------------------
     sticks:   dense  smooth     PW     G-vecs:    dense   smooth      PW
     Min         565     189     51               159513    30701    4383
     Max         566     190     52               159526    30710    4400
     Sum        9055    3037    823              2552337   491295   70261
 


     bravais-lattice index     =            0
     lattice parameter (alat)  =      14.8058  a.u.
     unit-cell volume          =   10282.4791 (a.u.)^3
     number of atoms/cell      =           66
     number of atomic types    =            3
     number of electrons       =      1056.00
     number of Kohn-Sham states=          634
     kinetic-energy cutoff     =      50.0000  Ry
     charge density cutoff     =     600.0000  Ry
     convergence threshold     =      1.0E-08
     mixing beta               =       0.3000
     number of iterations used =            8  plain     mixing
     Exchange-correlation      = VDW-DF ( 1  4  4  0 1 0)

     celldm(1)=  14.805786  celldm(2)=   0.000000  celldm(3)=   0.000000
     celldm(4)=   0.000000  celldm(5)=   0.000000  celldm(6)=   0.000000

     crystal axes: (cart. coord. in units of alat)
               a(1) = (   1.000000   0.000000   0.000000 )  
               a(2) = (   0.500000   0.866025   0.000000 )  
               a(3) = (   0.000000   0.000000   3.658245 )  

     reciprocal axes: (cart. coord. in units 2 pi/alat)
               b(1) = (  1.000000 -0.577350  0.000000 )  
               b(2) = (  0.000000  1.154701  0.000000 )  
               b(3) = (  0.000000  0.000000  0.273355 )  


     PseudoPot. # 1 for Cu read from file:
     /deac/thonhauserGrp/chakrad/calculations/atomandmolecule-qe6.2.1-i2012-C6modif/all_pbe_UPF_v1.5/cu_pbe_v1.2.uspp.F.UPF
     MD5 check sum: 6e991ff952a84172a2a52a1c1e996048
     Pseudo is Ultrasoft + core correction, Zval = 19.0
     Generated by new atomic code, or converted to UPF format
     Using radial grid of  867 points,  6 beta functions with: 
                l(1) =   0
                l(2) =   0
                l(3) =   1
                l(4) =   1
                l(5) =   2
                l(6) =   2
     Q(r) pseudized with  8 coefficients,  rinner =    1.150   1.150   1.150
                                                       1.150   1.150

     PseudoPot. # 2 for C  read from file:
     /deac/thonhauserGrp/chakrad/calculations/atomandmolecule-qe6.2.1-i2012-C6modif/all_pbe_UPF_v1.5/c_pbe_v1.2.uspp.F.UPF
     MD5 check sum: d1aef80898a10debaa0f26306b886e00
     Pseudo is Ultrasoft + core correction, Zval =  4.0
     Generated by new atomic code, or converted to UPF format
     Using radial grid of  721 points,  4 beta functions with: 
                l(1) =   0
                l(2) =   0
                l(3) =   1
                l(4) =   1
     Q(r) pseudized with  8 coefficients,  rinner =    1.100   1.100   1.100


     PseudoPot. # 3 for H  read from file:
     /deac/thonhauserGrp/chakrad/calculations/atomandmolecule-qe6.2.1-i2012-C6modif/all_pbe_UPF_v1.5/h_pbe_v1.4.uspp.F.UPF
     MD5 check sum: 761ae9a214b05c3daf00ab9f6b793d6f
     Pseudo is Ultrasoft, Zval =  1.0
     Generated by new atomic code, or converted to UPF format
     Using radial grid of  615 points,  2 beta functions with: 
                l(1) =   0
                l(2) =   0
     Q(r) pseudized with  8 coefficients,  rinner =    0.700

     vdW kernel table read from file vdW_kernel_table
     MD5 check sum: cc9485f6209b1096fbef62427c856dab

     atomic species   valence    mass     pseudopotential
        Cu            19.00     1.00000     Cu( 1.00)
        C              4.00     1.00000     C ( 1.00)
        H              1.00     1.00000     H ( 1.00)

     No symmetry found



   Cartesian axes

     site n.     atom                  positions (alat units)
         1           Cu  tau(   1) = (   0.1666667   0.0962250   0.2552686  )
         2           Cu  tau(   2) = (   0.5000000   0.0962250   0.2552686  )
         3           Cu  tau(   3) = (   0.8333333   0.0962250   0.2552686  )
         4           Cu  tau(   4) = (   0.3333333   0.3849002   0.2552686  )
         5           Cu  tau(   5) = (   0.6666667   0.3849002   0.2552686  )
         6           Cu  tau(   6) = (   1.0000000   0.3849002   0.2552686  )
         7           Cu  tau(   7) = (   0.5000000   0.6735753   0.2552686  )
         8           Cu  tau(   8) = (   0.8333333   0.6735753   0.2552686  )
         9           Cu  tau(   9) = (   1.1666667   0.6735753   0.2552686  )
        10           Cu  tau(  10) = (   0.0000000   0.1924501   0.5274341  )
        11           Cu  tau(  11) = (   0.3333333   0.1924501   0.5274341  )
        12           Cu  tau(  12) = (   0.6666667   0.1924501   0.5274341  )
        13           Cu  tau(  13) = (   0.1666667   0.4811252   0.5274341  )
        14           Cu  tau(  14) = (   0.5000000   0.4811252   0.5274341  )
        15           Cu  tau(  15) = (   0.8333333   0.4811252   0.5274341  )
        16           Cu  tau(  16) = (   0.3333333   0.7698004   0.5274341  )
        17           Cu  tau(  17) = (   0.6666667   0.7698004   0.5274341  )
        18           Cu  tau(  18) = (   1.0000000   0.7698004   0.5274341  )
        19           Cu  tau(  19) = (   0.0000000   0.0000000   0.7995997  )
        20           Cu  tau(  20) = (   0.3333333   0.0000000   0.7995997  )
        21           Cu  tau(  21) = (   0.6666667   0.0000000   0.7995997  )
        22           Cu  tau(  22) = (   0.1666667   0.2886751   0.7995997  )
        23           Cu  tau(  23) = (   0.5000000   0.2886751   0.7995997  )
        24           Cu  tau(  24) = (   0.8333333   0.2886751   0.7995997  )
        25           Cu  tau(  25) = (   0.3333333   0.5773503   0.7995997  )
        26           Cu  tau(  26) = (   0.6666667   0.5773503   0.7995997  )
        27           Cu  tau(  27) = (   1.0000000   0.5773503   0.7995997  )
        28           Cu  tau(  28) = (   0.1666659   0.0962246   1.0691130  )
        29           Cu  tau(  29) = (   0.5000000   0.0962241   1.0691104  )
        30           Cu  tau(  30) = (   0.8333341   0.0962246   1.0691130  )
        31           Cu  tau(  31) = (   0.3333325   0.3849006   1.0691104  )
        32           Cu  tau(  32) = (   0.6666675   0.3849006   1.0691104  )
        33           Cu  tau(  33) = (   1.0000000   0.3849003   1.0691143  )
        34           Cu  tau(  34) = (   0.5000000   0.6735762   1.0691130  )
        35           Cu  tau(  35) = (   0.8333334   0.6735753   1.0691143  )
        36           Cu  tau(  36) = (   1.1666666   0.6735753   1.0691143  )
        37           Cu  tau(  37) = (   0.0000000   0.1924486   1.3387540  )
        38           Cu  tau(  38) = (   0.3333330   0.1924499   1.3387465  )
        39           Cu  tau(  39) = (   0.6666670   0.1924499   1.3387465  )
        40           Cu  tau(  40) = (   0.1666676   0.4811247   1.3387504  )
        41           Cu  tau(  41) = (   0.5000000   0.4811256   1.3387465  )
        42           Cu  tau(  42) = (   0.8333324   0.4811247   1.3387504  )
        43           Cu  tau(  43) = (   0.3333346   0.7698011   1.3387540  )
        44           Cu  tau(  44) = (   0.6666654   0.7698011   1.3387540  )
        45           Cu  tau(  45) = (   1.0000000   0.7698014   1.3387504  )
        46           Cu  tau(  46) = (   0.0000000   0.0000000   1.6083750  )
        47           Cu  tau(  47) = (   0.3333333   0.0000005   1.6083624  )
        48           Cu  tau(  48) = (   0.6666667   0.0000005   1.6083624  )
        49           Cu  tau(  49) = (   0.1666671   0.2886748   1.6083624  )
        50           Cu  tau(  50) = (   0.5000000   0.2886751   1.6083553  )
        51           Cu  tau(  51) = (   0.8333329   0.2886748   1.6083624  )
        52           Cu  tau(  52) = (   0.3333338   0.5773500   1.6083624  )
        53           Cu  tau(  53) = (   0.6666662   0.5773500   1.6083624  )
        54           Cu  tau(  54) = (   1.0000000   0.5773503   1.6083570  )
        55           C   tau(  55) = (   0.6567407   0.3959883   2.0678014  )
        56           C   tau(  56) = (   0.5046394   0.3028152   2.0678013  )
        57           C   tau(  57) = (   0.3478975   0.3879497   2.0678014  )
        58           C   tau(  58) = (   0.3432593   0.5662630   2.0678014  )
        59           C   tau(  59) = (   0.4953606   0.6594361   2.0678013  )
        60           C   tau(  60) = (   0.6521025   0.5743016   2.0678014  )
        61           H   tau(  61) = (   0.7789959   0.3295665   2.0678796  )
        62           H   tau(  62) = (   0.5082587   0.1637263   2.0678797  )
        63           H   tau(  63) = (   0.2292624   0.3152577   2.0678796  )
        64           H   tau(  64) = (   0.2210041   0.6326847   2.0678796  )
        65           H   tau(  65) = (   0.4917413   0.7985249   2.0678797  )
        66           H   tau(  66) = (   0.7707376   0.6469936   2.0678796  )

     number of k points=    10  gaussian smearing, width (Ry)=  0.0200
                       cart. coord. in units 2pi/alat
        k(    1) = (   0.0000000   0.0000000   0.0000000), wk =   0.1250000
        k(    2) = (   0.0000000   0.2886751   0.0000000), wk =   0.2500000
        k(    3) = (   0.0000000  -0.5773503   0.0000000), wk =   0.1250000
        k(    4) = (   0.2500000  -0.7216878   0.0000000), wk =   0.2500000
        k(    5) = (  -0.2500000   0.1443376   0.0000000), wk =   0.2500000
        k(    6) = (   0.2500000   0.1443376   0.0000000), wk =   0.2500000
        k(    7) = (   0.5000000  -0.2886751   0.0000000), wk =   0.1250000
        k(    8) = (  -0.5000000  -0.2886751   0.0000000), wk =   0.1250000
        k(    9) = (  -0.2500000  -0.7216878   0.0000000), wk =   0.2500000
        k(   10) = (  -0.5000000  -0.5773503   0.0000000), wk =   0.2500000

     Dense  grid:  2552337 G-vectors     FFT dimensions: ( 120, 120, 432)

     Smooth grid:   491295 G-vectors     FFT dimensions: (  72,  72, 243)

     Estimated max dynamical RAM per process >       1.14 GB

     Estimated total dynamical RAM >      18.26 GB

     Initial potential from superposition of free atoms
     Check: negative starting charge=   -0.000732

     starting charge 1001.99960, renormalised to 1056.00000

     negative rho (up, down):  7.710E-04 0.000E+00


     %%%%%%%%%%%%%%%%%%%%%%%%%%%%%%%%%%%%%%%%%%%%%%%%%%%%%%%%%%%%%%%%%%%%%%%%
     %                                                                      %
     % You are using vdW-DF, which was implemented by the Thonhauser group. %
     % Please cite the following two papers that made this development      %
     % possible and the two reviews that describe the various versions:     %
     %                                                                      %
     %   T. Thonhauser et al., PRL 115, 136402 (2015).                      %
     %   T. Thonhauser et al., PRB 76, 125112 (2007).                       %
     %   K. Berland et al., Rep. Prog. Phys. 78, 066501 (2015).             %
     %   D.C. Langreth et al., J. Phys.: Condens. Matter 21, 084203 (2009). %
     %                                                                      %
     %                                                                      %
     % If you are calculating the stress with vdW-DF, please also cite:     %
     %                                                                      %
     %   R. Sabatini et al., J. Phys.: Condens. Matter 24, 424209 (2012).   %
     %                                                                      %
     %%%%%%%%%%%%%%%%%%%%%%%%%%%%%%%%%%%%%%%%%%%%%%%%%%%%%%%%%%%%%%%%%%%%%%%%


     Starting wfcs are  732 randomized atomic wfcs

     total cpu time spent up to now is       90.2 secs

     Self-consistent Calculation

     iteration #  1     ecut=    50.00 Ry     beta= 0.30
     Davidson diagonalization with overlap
     ethr =  1.00E-02,  avg # of iterations =  5.1

     negative rho (up, down):  4.831E-04 0.000E+00

     total cpu time spent up to now is     1282.0 secs

     total energy              =  -19014.92465881 Ry
     Harris-Foulkes estimate   =  -22005.56195742 Ry
     estimated scf accuracy    <    5911.57920650 Ry

     iteration #  2     ecut=    50.00 Ry     beta= 0.30
     Davidson diagonalization with overlap
     ethr =  1.00E-02,  avg # of iterations = 19.3

     negative rho (up, down):  5.192E-04 0.000E+00

     total cpu time spent up to now is     4259.2 secs

     total energy              =  -19248.10014640 Ry
     Harris-Foulkes estimate   =  -38805.15062779 Ry
     estimated scf accuracy    <  282597.50385609 Ry

     iteration #  3     ecut=    50.00 Ry     beta= 0.30
     Davidson diagonalization with overlap
     ethr =  1.00E-02,  avg # of iterations =  7.0

     negative rho (up, down):  5.986E-04 0.000E+00

     total cpu time spent up to now is     5800.7 secs

     total energy              =  -21729.09659486 Ry
     Harris-Foulkes estimate   =  -23364.84523368 Ry
     estimated scf accuracy    <   43250.50788924 Ry

     iteration #  4     ecut=    50.00 Ry     beta= 0.30
     Davidson diagonalization with overlap
     ethr =  1.00E-02,  avg # of iterations =  7.4

     negative rho (up, down):  8.170E-04 0.000E+00

     total cpu time spent up to now is     7001.4 secs

     total energy              =  -21728.58067993 Ry
     Harris-Foulkes estimate   =  -22112.12330330 Ry
     estimated scf accuracy    <   10532.35289264 Ry

     iteration #  5     ecut=    50.00 Ry     beta= 0.30
     Davidson diagonalization with overlap
     ethr =  1.00E-02,  avg # of iterations =  6.0

     negative rho (up, down):  5.244E-08 0.000E+00

     total cpu time spent up to now is     8432.5 secs

     total energy              =  -21698.68110374 Ry
     Harris-Foulkes estimate   =  -22161.11986852 Ry
     estimated scf accuracy    <    9550.89714463 Ry

     iteration #  6     ecut=    50.00 Ry     beta= 0.30
     Davidson diagonalization with overlap
     ethr =  1.00E-02,  avg # of iterations =  6.0

     negative rho (up, down):  1.232E-07 0.000E+00

     total cpu time spent up to now is     9563.0 secs

     total energy              =  -21876.37060977 Ry
     Harris-Foulkes estimate   =  -21978.00549016 Ry
     estimated scf accuracy    <     867.62983785 Ry

     iteration #  7     ecut=    50.00 Ry     beta= 0.30
     Davidson diagonalization with overlap
     ethr =  1.00E-02,  avg # of iterations =  3.0

     negative rho (up, down):  4.631E-07 0.000E+00

     total cpu time spent up to now is     9895.3 secs

     total energy              =  -21909.93669771 Ry
     Harris-Foulkes estimate   =  -21937.83092158 Ry
     estimated scf accuracy    <     625.67067222 Ry

     iteration #  8     ecut=    50.00 Ry     beta= 0.30
     Davidson diagonalization with overlap
     ethr =  1.00E-02,  avg # of iterations =  2.7

     negative rho (up, down):  9.092E-06 0.000E+00

     total cpu time spent up to now is    10160.7 secs

     total energy              =  -21912.94204180 Ry
     Harris-Foulkes estimate   =  -21924.06300362 Ry
     estimated scf accuracy    <      73.48414908 Ry

     iteration #  9     ecut=    50.00 Ry     beta= 0.30
     Davidson diagonalization with overlap
     ethr =  6.96E-03,  avg # of iterations =  2.8

     negative rho (up, down):  2.124E-05 0.000E+00

     total cpu time spent up to now is    10423.4 secs

     total energy              =  -21914.32205566 Ry
     Harris-Foulkes estimate   =  -21915.95331952 Ry
     estimated scf accuracy    <      98.08817863 Ry

     iteration # 10     ecut=    50.00 Ry     beta= 0.30
     Davidson diagonalization with overlap
     ethr =  6.96E-03,  avg # of iterations =  1.5

     negative rho (up, down):  3.185E-02 0.000E+00

     total cpu time spent up to now is    10651.3 secs

     total energy              =  -21893.50284918 Ry
     Harris-Foulkes estimate   =  -21914.56166234 Ry
     estimated scf accuracy    <      95.51079727 Ry

     iteration # 11     ecut=    50.00 Ry     beta= 0.30
     Davidson diagonalization with overlap
     ethr =  6.96E-03,  avg # of iterations =  4.4

     negative rho (up, down):  7.382E-03 0.000E+00

     total cpu time spent up to now is    11161.2 secs

     total energy              =  -21898.72999129 Ry
     Harris-Foulkes estimate   =  -21912.91692542 Ry
     estimated scf accuracy    <     134.05498838 Ry

     iteration # 12     ecut=    50.00 Ry     beta= 0.30
     Davidson diagonalization with overlap
     ethr =  6.96E-03,  avg # of iterations =  3.0

     negative rho (up, down):  4.387E-03 0.000E+00

     total cpu time spent up to now is    11445.6 secs

     total energy              =  -21901.99456183 Ry
     Harris-Foulkes estimate   =  -21905.09606727 Ry
     estimated scf accuracy    <      23.78028003 Ry

     iteration # 13     ecut=    50.00 Ry     beta= 0.30
     Davidson diagonalization with overlap
     ethr =  2.25E-03,  avg # of iterations =  3.1

     negative rho (up, down):  5.942E-03 0.000E+00

     total cpu time spent up to now is    11747.0 secs

     total energy              =  -21903.81690691 Ry
     Harris-Foulkes estimate   =  -21904.17797678 Ry
     estimated scf accuracy    <       4.21222838 Ry

     iteration # 14     ecut=    50.00 Ry     beta= 0.30
     Davidson diagonalization with overlap
     ethr =  3.99E-04,  avg # of iterations =  6.1

     negative rho (up, down):  4.983E-03 0.000E+00

     total cpu time spent up to now is    12146.9 secs

     total energy              =  -21903.67425137 Ry
     Harris-Foulkes estimate   =  -21904.01565393 Ry
     estimated scf accuracy    <       3.17821768 Ry

     iteration # 15     ecut=    50.00 Ry     beta= 0.30
     Davidson diagonalization with overlap
     ethr =  3.01E-04,  avg # of iterations =  5.8

     negative rho (up, down):  4.488E-03 0.000E+00

     total cpu time spent up to now is    12519.6 secs

     total energy              =  -21903.76211179 Ry
     Harris-Foulkes estimate   =  -21903.82676510 Ry
     estimated scf accuracy    <       0.47144078 Ry

     iteration # 16     ecut=    50.00 Ry     beta= 0.30
     Davidson diagonalization with overlap
     ethr =  4.46E-05,  avg # of iterations =  8.8

     negative rho (up, down):  3.754E-03 0.000E+00

     total cpu time spent up to now is    13040.4 secs

     total energy              =  -21903.77043463 Ry
     Harris-Foulkes estimate   =  -21903.79934040 Ry
     estimated scf accuracy    <       0.44008736 Ry

     iteration # 17     ecut=    50.00 Ry     beta= 0.30
     Davidson diagonalization with overlap
     ethr =  4.17E-05,  avg # of iterations =  1.0

     negative rho (up, down):  2.996E-03 0.000E+00

     total cpu time spent up to now is    13246.7 secs

     total energy              =  -21903.76664890 Ry
     Harris-Foulkes estimate   =  -21903.78311698 Ry
     estimated scf accuracy    <       0.11670737 Ry

     iteration # 18     ecut=    50.00 Ry     beta= 0.30
     Davidson diagonalization with overlap
     ethr =  1.11E-05,  avg # of iterations =  7.5

     negative rho (up, down):  2.558E-03 0.000E+00

     total cpu time spent up to now is    13723.1 secs

     total energy              =  -21903.76570381 Ry
     Harris-Foulkes estimate   =  -21903.77579096 Ry
     estimated scf accuracy    <       0.08797901 Ry

     iteration # 19     ecut=    50.00 Ry     beta= 0.30
     Davidson diagonalization with overlap
     ethr =  8.33E-06,  avg # of iterations =  7.6

     negative rho (up, down):  2.349E-03 0.000E+00

     total cpu time spent up to now is    14191.0 secs

     total energy              =  -21903.76829583 Ry
     Harris-Foulkes estimate   =  -21903.77013132 Ry
     estimated scf accuracy    <       0.01798601 Ry

     iteration # 20     ecut=    50.00 Ry     beta= 0.30
     Davidson diagonalization with overlap
     ethr =  1.70E-06,  avg # of iterations =  6.8

     negative rho (up, down):  2.268E-03 0.000E+00

     total cpu time spent up to now is    14647.3 secs

     total energy              =  -21903.76811536 Ry
     Harris-Foulkes estimate   =  -21903.76951246 Ry
     estimated scf accuracy    <       0.00996945 Ry

     iteration # 21     ecut=    50.00 Ry     beta= 0.30
     Davidson diagonalization with overlap
     ethr =  9.44E-07,  avg # of iterations =  8.2

     negative rho (up, down):  2.224E-03 0.000E+00

     total cpu time spent up to now is    15138.4 secs

     total energy              =  -21903.76886700 Ry
     Harris-Foulkes estimate   =  -21903.76898581 Ry
     estimated scf accuracy    <       0.00073629 Ry

     iteration # 22     ecut=    50.00 Ry     beta= 0.30
     Davidson diagonalization with overlap
     ethr =  6.97E-08,  avg # of iterations =  2.0

     negative rho (up, down):  2.213E-03 0.000E+00

     total cpu time spent up to now is    15406.7 secs

     total energy              =  -21903.76900480 Ry
     Harris-Foulkes estimate   =  -21903.76896063 Ry
     estimated scf accuracy    <       0.00024724 Ry

     iteration # 23     ecut=    50.00 Ry     beta= 0.30
     Davidson diagonalization with overlap
     ethr =  2.34E-08,  avg # of iterations =  5.3

     negative rho (up, down):  2.251E-03 0.000E+00

     total cpu time spent up to now is    15785.9 secs

     total energy              =  -21903.76901591 Ry
     Harris-Foulkes estimate   =  -21903.76904267 Ry
     estimated scf accuracy    <       0.00037215 Ry

     iteration # 24     ecut=    50.00 Ry     beta= 0.30
     Davidson diagonalization with overlap
     ethr =  2.34E-08,  avg # of iterations =  2.0

     negative rho (up, down):  2.317E-03 0.000E+00

     total cpu time spent up to now is    16029.3 secs

     total energy              =  -21903.76904988 Ry
     Harris-Foulkes estimate   =  -21903.76905472 Ry
     estimated scf accuracy    <       0.00031642 Ry

     iteration # 25     ecut=    50.00 Ry     beta= 0.30
     Davidson diagonalization with overlap
     ethr =  2.34E-08,  avg # of iterations =  4.4

     negative rho (up, down):  2.378E-03 0.000E+00

     total cpu time spent up to now is    16352.3 secs

     total energy              =  -21903.76906963 Ry
     Harris-Foulkes estimate   =  -21903.76906885 Ry
     estimated scf accuracy    <       0.00005224 Ry

     iteration # 26     ecut=    50.00 Ry     beta= 0.30
     Davidson diagonalization with overlap
     ethr =  4.95E-09,  avg # of iterations =  2.2

     negative rho (up, down):  2.398E-03 0.000E+00

     total cpu time spent up to now is    16595.1 secs

     total energy              =  -21903.76907464 Ry
     Harris-Foulkes estimate   =  -21903.76907379 Ry
     estimated scf accuracy    <       0.00000436 Ry

     iteration # 27     ecut=    50.00 Ry     beta= 0.30
     Davidson diagonalization with overlap
     ethr =  4.13E-10,  avg # of iterations =  2.0

     negative rho (up, down):  2.401E-03 0.000E+00

     total cpu time spent up to now is    16892.1 secs

     total energy              =  -21903.76907550 Ry
     Harris-Foulkes estimate   =  -21903.76907548 Ry
     estimated scf accuracy    <       0.00000336 Ry

     iteration # 28     ecut=    50.00 Ry     beta= 0.30
     Davidson diagonalization with overlap
     ethr =  3.18E-10,  avg # of iterations =  2.0

     negative rho (up, down):  2.396E-03 0.000E+00

     total cpu time spent up to now is    17136.9 secs

     total energy              =  -21903.76907552 Ry
     Harris-Foulkes estimate   =  -21903.76907591 Ry
     estimated scf accuracy    <       0.00000322 Ry

     iteration # 29     ecut=    50.00 Ry     beta= 0.30
     Davidson diagonalization with overlap
     ethr =  3.05E-10,  avg # of iterations =  1.4

     negative rho (up, down):  2.408E-03 0.000E+00

     total cpu time spent up to now is    17359.2 secs

     total energy              =  -21903.76907563 Ry
     Harris-Foulkes estimate   =  -21903.76907613 Ry
     estimated scf accuracy    <       0.00001116 Ry

     iteration # 30     ecut=    50.00 Ry     beta= 0.30
     Davidson diagonalization with overlap
     ethr =  3.05E-10,  avg # of iterations =  2.0

     negative rho (up, down):  2.402E-03 0.000E+00

     total cpu time spent up to now is    17602.7 secs

     total energy              =  -21903.76907606 Ry
     Harris-Foulkes estimate   =  -21903.76907610 Ry
     estimated scf accuracy    <       0.00000256 Ry

     iteration # 31     ecut=    50.00 Ry     beta= 0.30
     Davidson diagonalization with overlap
     ethr =  2.42E-10,  avg # of iterations =  1.0

     negative rho (up, down):  2.403E-03 0.000E+00

     total cpu time spent up to now is    17811.9 secs

     total energy              =  -21903.76907618 Ry
     Harris-Foulkes estimate   =  -21903.76907618 Ry
     estimated scf accuracy    <       0.00000011 Ry

     iteration # 32     ecut=    50.00 Ry     beta= 0.30
     Davidson diagonalization with overlap
     ethr =  1.03E-11,  avg # of iterations =  2.0

     negative rho (up, down):  2.402E-03 0.000E+00

     total cpu time spent up to now is    18089.8 secs

     total energy              =  -21903.76907622 Ry
     Harris-Foulkes estimate   =  -21903.76907620 Ry
     estimated scf accuracy    <       0.00000005 Ry

     iteration # 33     ecut=    50.00 Ry     beta= 0.30
     Davidson diagonalization with overlap
     ethr =  4.39E-12,  avg # of iterations =  2.0

     negative rho (up, down):  2.400E-03 0.000E+00

     total cpu time spent up to now is    18327.9 secs

     total energy              =  -21903.76907625 Ry
     Harris-Foulkes estimate   =  -21903.76907623 Ry
     estimated scf accuracy    <       0.00000003 Ry

     iteration # 34     ecut=    50.00 Ry     beta= 0.30
     Davidson diagonalization with overlap
     ethr =  3.24E-12,  avg # of iterations =  2.0

     negative rho (up, down):  2.398E-03 0.000E+00

     total cpu time spent up to now is    18580.2 secs

     End of self-consistent calculation

          k = 0.0000 0.0000 0.0000 ( 61453 PWs)   bands (ev):

  -107.8561-107.8520-107.8496-107.8496-107.8496-107.8491-107.8491-107.8486
  -107.8475-107.8460-107.8460-107.8459-107.8459-107.8452-107.8452-107.8449
  -107.8445-107.8444-107.8404-107.8402-107.8402-107.8400-107.8393-107.8393
  -107.8390-107.8369-107.8369-107.8352-107.8313-107.8305-107.8305-107.8304
  -107.8304-107.8297-107.8281-107.8276-107.6196-107.6155-107.6155-107.6147
  -107.6132-107.6131-107.6128-107.6108-107.6107-107.5965-107.5914-107.5914
  -107.5914-107.5912-107.5912-107.5912-107.5888-107.5888 -65.3104 -65.2975
   -65.2969 -65.2969 -65.2964 -65.2964 -65.2959 -65.2894 -65.2893 -65.2893
   -65.2888 -65.2888 -65.2884 -65.2884 -65.2882 -65.2851 -65.2851 -65.2851
   -65.2847 -65.2829 -65.2774 -65.2774 -65.2771 -65.2764 -65.2762 -65.2762
   -65.2746 -65.2745 -65.2745 -65.2742 -65.2742 -65.2736 -65.2735 -65.2735
   -65.2710 -65.2710 -65.2707 -65.2705 -65.2651 -65.2651 -65.2650 -65.2645
   -65.2644 -65.2644 -65.2636 -65.2636 -65.2601 -65.2601 -65.2588 -65.2571
   -65.2571 -65.2567 -65.2567 -65.2567 -65.2567 -65.2564 -65.2542 -65.2498
   -65.2498 -65.2487 -65.2487 -65.2486 -65.2483 -65.2483 -65.2481 -65.2467
   -65.2467 -65.2467 -65.2459 -65.2454 -65.2454 -65.2451 -65.2451 -65.2424
   -65.2424 -65.2388 -65.2385 -65.2385 -65.2384 -65.2384 -65.2384 -65.2380
   -65.2380 -65.2376 -65.2374 -65.2372 -65.2372 -65.2348 -65.2321 -65.2321
   -65.2318 -65.2314 -65.2314 -65.2314 -65.2313 -65.2313 -65.2256 -65.2256
   -65.2240 -65.2240 -65.2239 -65.2236 -65.2234 -65.2234 -65.2196 -65.2196
   -65.2129 -65.2129 -65.0721 -65.0717 -65.0716 -65.0708 -65.0708 -65.0699
   -65.0683 -65.0683 -65.0682 -65.0674 -65.0508 -65.0507 -65.0506 -65.0506
   -65.0505 -65.0505 -65.0481 -65.0481 -65.0478 -65.0476 -65.0367 -65.0361
   -65.0361 -65.0351 -65.0351 -65.0351 -65.0235 -65.0234 -65.0154 -65.0154
   -65.0153 -65.0153 -65.0153 -65.0151 -65.0031 -65.0031 -64.9954 -64.9919
   -64.9918 -64.9908 -64.9892 -64.9892 -64.9889 -64.9870 -64.9870 -64.9685
   -64.9638 -64.9638 -64.9638 -64.9636 -64.9636 -64.9636 -64.9613 -64.9613
   -12.6074  -9.8635  -9.8633  -6.2734  -6.2729  -4.3497  -4.1209  -3.5007
    -2.7552  -2.5509  -2.3591  -1.7109  -1.7108  -1.4256  -1.1557  -1.1553
    -1.1552  -1.1552  -1.1552  -1.1551  -0.7548  -0.7510  -0.7510  -0.7509
    -0.7509  -0.7509  -0.6109  -0.4317  -0.2537  -0.2510  -0.2510  -0.2506
    -0.2506  -0.2506  -0.2359   0.1974   0.1974   0.1993   0.1993   0.2003
     0.2032   0.2268   0.2270   0.5493   0.5493   0.5503   0.5506   0.5506
     0.5521   0.6754   0.6754   0.6757   0.6758   0.6758   0.6762   0.7250
     0.7250   0.7253   0.7253   0.7253   0.7258   0.7535   0.7535   0.7674
     0.7674   0.7785   0.7785   0.8742   0.8742   0.8822   0.8822   0.9027
     0.9027   0.9031   0.9035   0.9035   0.9041   0.9125   0.9125   0.9135
     0.9135   0.9629   0.9629   1.0054   1.0054   1.1122   1.1122   1.1157
     1.1157   1.1166   1.1167   1.1167   1.1176   1.1500   1.1500   1.3510
     1.3510   1.3529   1.3530   1.3530   1.3543   1.4828   1.4828   1.4910
     1.4910   1.5044   1.5044   1.5057   1.5057   1.5060   1.5066   1.5448
     1.5495   1.5496   1.5642   1.6180   1.6180   1.6192   1.6192   1.6193
     1.6197   1.6320   1.6320   1.6577   1.6577   1.6888   1.6942   1.6942
     1.7031   1.7031   1.7054   1.7054   1.7056   1.7062   1.7441   1.7441
     1.7561   1.7561   1.7571   1.7571   1.7571   1.7575   1.7764   1.7765
     1.7765   1.7770   1.7770   1.7771   1.7829   1.7829   1.7994   1.8872
     1.8872   1.9004   1.9004   1.9065   1.9065   1.9066   1.9083   1.9217
     1.9217   1.9262   1.9269   1.9482   1.9482   1.9535   1.9536   1.9772
     1.9772   1.9784   1.9784   1.9785   1.9789   1.9791   1.9792   2.1027
     2.1028   2.1709   2.1710   2.1710   2.1738   2.2369   2.2369   2.2369
     2.2374   2.2374   2.2374   2.2381   2.2381   2.3015   2.3015   2.3024
     2.3040   2.3130   2.3130   2.3169   2.3169   2.3389   2.3390   2.3612
     2.3612   2.3802   2.4051   2.4051   2.4344   2.4344   2.4414   2.4414
     2.4417   2.4441   2.4610   2.4610   2.4676   2.4676   2.4676   2.4679
     2.4680   2.4680   2.4716   2.4716   2.4728   2.4728   2.5421   2.5421
     2.6067   2.6068   2.6068   2.6070   2.6071   2.6071   2.6636   2.6642
     2.6642   2.6657   2.6661   2.6661   2.6661   2.6664   2.6665   2.6665
     2.6718   2.6718   2.7300   2.7300   2.7349   2.7349   2.7349   2.7352
     2.7354   2.7354   2.7463   2.7464   2.7464   2.7467   2.7467   2.7467
     2.7707   2.7708   2.7708   2.7711   2.7711   2.7711   2.8016   2.8016
     2.8121   2.8121   2.8399   2.8403   2.8403   2.8406   2.8406   2.8406
     2.8444   2.8445   2.8660   2.8662   2.8662   2.8662   2.8662   2.8664
     2.8944   2.8944   2.8979   2.8979   2.8983   2.8983   2.9183   2.9184
     2.9332   2.9333   2.9333   2.9336   2.9336   2.9337   2.9591   2.9591
     2.9591   2.9609   2.9609   2.9642   2.9860   2.9860   3.0106   3.0106
     3.0106   3.0111   3.0112   3.0112   3.8322   3.9411   3.9411   3.9420
     3.9570   3.9693   3.9693   4.4211   5.3696   5.3696   5.3751   5.3929
     5.4117   5.4118   7.0349   7.0349   7.0563   7.1468   7.2223   7.2223
     7.2727   7.4786   7.4788   7.8040   7.8041   7.8042   7.8042   7.8199
     7.8199   8.1696   8.1974   8.1974   8.2173   8.2173   8.4956   8.6149
     8.6160   8.7826   8.8701   8.8702   8.8721   8.8727   8.9932   8.9932
     9.0016   9.2282   9.4901   9.4901   9.4905   9.4957   9.4957   9.8054
     9.8056   9.8688   9.8736   9.8778  10.5581  10.5719  10.6507  10.6507
    10.6656  10.6656  10.8146  10.8146  10.8600  10.8600  10.8937  11.0749
    11.1434  11.1435  11.2792  11.2994  11.2994  11.3148  11.3148  11.3295
    11.4457  11.6837  11.6838  11.7952  11.8087  11.8087  11.8556  11.8557
    11.8812  11.8812  11.8829  11.9425  11.9425  12.0276  12.1059  12.2191
    12.2192  12.2444  12.3195  12.3257  12.3257  12.4574  12.4574  12.7070
    12.9053  12.9054  12.9060  12.9928  12.9928  12.9928  13.0056  13.0337
    13.0873  13.1017

          k = 0.0000 0.2887 0.0000 ( 61417 PWs)   bands (ev):

  -107.8556-107.8524-107.8509-107.8502-107.8497-107.8486-107.8482-107.8478
  -107.8473-107.8465-107.8464-107.8458-107.8457-107.8456-107.8452-107.8445
  -107.8444-107.8442-107.8414-107.8404-107.8403-107.8401-107.8390-107.8389
  -107.8383-107.8371-107.8371-107.8348-107.8322-107.8311-107.8310-107.8298
  -107.8297-107.8291-107.8283-107.8277-107.6192-107.6163-107.6156-107.6147
  -107.6132-107.6129-107.6123-107.6109-107.6108-107.5960-107.5930-107.5920
  -107.5920-107.5905-107.5905-107.5901-107.5890-107.5890 -65.3090 -65.2999
   -65.2993 -65.2981 -65.2971 -65.2970 -65.2964 -65.2962 -65.2933 -65.2932
   -65.2923 -65.2923 -65.2906 -65.2904 -65.2859 -65.2845 -65.2845 -65.2825
   -65.2819 -65.2809 -65.2806 -65.2805 -65.2804 -65.2801 -65.2781 -65.2781
   -65.2777 -65.2774 -65.2734 -65.2734 -65.2705 -65.2702 -65.2701 -65.2690
   -65.2688 -65.2682 -65.2676 -65.2675 -65.2654 -65.2654 -65.2630 -65.2630
   -65.2597 -65.2596 -65.2593 -65.2590 -65.2582 -65.2581 -65.2572 -65.2563
   -65.2559 -65.2549 -65.2545 -65.2535 -65.2533 -65.2530 -65.2523 -65.2516
   -65.2515 -65.2497 -65.2494 -65.2494 -65.2491 -65.2490 -65.2489 -65.2465
   -65.2463 -65.2443 -65.2442 -65.2435 -65.2435 -65.2420 -65.2419 -65.2416
   -65.2411 -65.2408 -65.2408 -65.2404 -65.2402 -65.2401 -65.2401 -65.2385
   -65.2384 -65.2368 -65.2366 -65.2360 -65.2355 -65.2348 -65.2347 -65.2344
   -65.2344 -65.2338 -65.2329 -65.2309 -65.2309 -65.2292 -65.2276 -65.2276
   -65.2276 -65.2266 -65.2263 -65.2240 -65.2240 -65.2232 -65.2207 -65.2201
   -65.2170 -65.2139 -65.0826 -65.0772 -65.0771 -65.0757 -65.0754 -65.0639
   -65.0637 -65.0622 -65.0582 -65.0580 -65.0566 -65.0565 -65.0554 -65.0553
   -65.0551 -65.0435 -65.0434 -65.0400 -65.0397 -65.0386 -65.0378 -65.0377
   -65.0356 -65.0355 -65.0348 -65.0316 -65.0277 -65.0245 -65.0194 -65.0193
   -65.0183 -65.0153 -65.0152 -65.0112 -65.0074 -65.0042 -64.9951 -64.9924
   -64.9919 -64.9908 -64.9894 -64.9890 -64.9884 -64.9871 -64.9870 -64.9681
   -64.9653 -64.9643 -64.9643 -64.9629 -64.9629 -64.9625 -64.9615 -64.9615
   -12.6066  -9.8671  -9.8640  -6.2762  -6.2688  -4.3234  -3.9074  -3.2917
    -2.7279  -2.3627  -2.3502  -2.3044  -1.7693  -1.7466  -1.7183  -1.5934
    -1.5931  -1.2385  -1.1101  -1.1092  -0.9571  -0.5423  -0.5371  -0.5328
    -0.4464  -0.4389  -0.3377  -0.3258  -0.2510  -0.2506  -0.1159  -0.0829
    -0.0780   0.0197   0.0239   0.0242   0.1784   0.1988   0.2077   0.2245
     0.2303   0.2960   0.2962   0.4795   0.4848   0.5150   0.5150   0.5405
     0.5510   0.5511   0.5746   0.5748   0.6209   0.6225   0.6240   0.6246
     0.6368   0.6369   0.6772   0.6772   0.7138   0.7138   0.7424   0.7425
     0.7500   0.7934   0.7938   0.8081   0.8082   0.8303   0.8305   0.8431
     0.8432   0.8763   0.8765   0.9179   0.9864   0.9864   0.9922   1.0165
     1.0165   1.0305   1.0309   1.0663   1.0664   1.1013   1.1039   1.1039
     1.1669   1.1669   1.1916   1.1932   1.2138   1.2139   1.2589   1.2591
     1.2756   1.2961   1.3017   1.3021   1.3300   1.3712   1.3715   1.3904
     1.3905   1.3978   1.4332   1.4355   1.4466   1.4705   1.4706   1.4782
     1.5102   1.5105   1.5391   1.5759   1.5893   1.5993   1.5993   1.6119
     1.6122   1.6123   1.6485   1.6510   1.6567   1.6689   1.6690   1.6845
     1.6890   1.6893   1.7065   1.7100   1.7191   1.7277   1.7397   1.7475
     1.7477   1.7563   1.7609   1.7620   1.7644   1.7813   1.7822   1.7857
     1.7858   1.7898   1.8099   1.8132   1.8226   1.8326   1.8350   1.8453
     1.8467   1.8565   1.8576   1.8920   1.8924   1.9039   1.9041   1.9052
     1.9193   1.9270   1.9288   1.9295   1.9307   1.9363   1.9444   1.9601
     1.9844   1.9883   2.0031   2.0063   2.0154   2.0157   2.0272   2.0367
     2.0380   2.0403   2.0454   2.0691   2.0692   2.0830   2.1101   2.1191
     2.1425   2.1428   2.1585   2.1616   2.1673   2.1674   2.2297   2.2315
     2.2374   2.2460   2.2727   2.2757   2.2824   2.2861   2.2937   2.2953
     2.3221   2.3279   2.3351   2.3366   2.3416   2.3420   2.3761   2.3765
     2.4034   2.4090   2.4122   2.4133   2.4208   2.4463   2.4506   2.4520
     2.4559   2.4597   2.4880   2.4989   2.5029   2.5095   2.5099   2.5273
     2.5315   2.5318   2.5486   2.5521   2.5523   2.5528   2.5618   2.5652
     2.5889   2.5987   2.6369   2.6410   2.6462   2.6742   2.6753   2.6838
     2.6867   2.6871   2.6880   2.6914   2.7110   2.7113   2.7134   2.7259
     2.7287   2.7307   2.7342   2.7393   2.7640   2.7799   2.7799   2.7840
     2.7937   2.7940   2.8144   2.8153   2.8216   2.8230   2.8671   2.8675
     2.8676   2.8767   2.8767   2.8806   2.8910   2.8921   2.8992   2.9025
     2.9026   2.9027   2.9099   2.9100   2.9122   2.9182   2.9264   2.9267
     2.9443   2.9568   2.9569   2.9576   2.9593   2.9646   2.9661   2.9663
     2.9883   2.9972   3.0049   3.0087   3.0092   3.0135   3.0264   3.0269
     3.0986   3.1164   3.1569   3.2504   3.2738   3.2740   3.3498   3.4344
     3.4344   3.6879   3.7399   3.7405   3.7444   3.7569   4.0528   4.2460
     4.4329   4.7146   4.7157   4.9277   5.0155   5.0257   5.0643   5.8008
     5.8010   6.0166   6.1673   6.1788   6.1991   6.1996   6.4476   6.6908
     6.7403   6.8749   6.8826   7.2546   7.3430   7.4174   7.4665   7.6995
     7.7335   7.7433   7.9248   7.9858   8.1932   8.1995   8.2692   8.3503
     8.3758   8.6685   8.6701   8.7671   8.8189   8.9287   9.2188   9.2206
     9.3111   9.3835   9.5660   9.6155   9.7631   9.8133   9.9171   9.9458
     9.9723   9.9739  10.0219  10.0878  10.2589  10.3699  10.3710  10.4717
    10.5028  10.5312  10.6027  10.6216  10.7032  10.7471  10.7506  10.8184
    10.9139  10.9220  10.9345  11.0639  11.0979  11.2169  11.4207  11.4396
    11.4606  11.5002  11.5280  11.5769  11.6621  11.7631  11.9065  12.0023
    12.0125  12.1509  12.2081  12.2926  12.3156  12.4106  12.4769  12.5128
    12.5311  12.5632  12.6049  12.6672  12.8142  12.8158  12.8374  12.8701
    12.9426  12.9912  13.1033  13.1213  13.1715  13.2103  13.2117  13.3202
    13.3951  13.4669

          k = 0.0000-0.5774 0.0000 ( 61408 PWs)   bands (ev):

  -107.8546-107.8536-107.8513-107.8505-107.8496-107.8485-107.8477-107.8472
  -107.8469-107.8468-107.8465-107.8464-107.8462-107.8455-107.8448-107.8446
  -107.8443-107.8432-107.8427-107.8406-107.8405-107.8402-107.8384-107.8384
  -107.8381-107.8374-107.8372-107.8339-107.8333-107.8313-107.8312-107.8295
  -107.8289-107.8289-107.8288-107.8279-107.6186-107.6172-107.6157-107.6148
  -107.6130-107.6127-107.6121-107.6110-107.6108-107.5948-107.5947-107.5922
  -107.5922-107.5897-107.5897-107.5896-107.5895-107.5895 -65.3053 -65.3047
   -65.3024 -65.3010 -65.2972 -65.2971 -65.2960 -65.2958 -65.2952 -65.2950
   -65.2943 -65.2941 -65.2939 -65.2935 -65.2899 -65.2835 -65.2831 -65.2830
   -65.2826 -65.2824 -65.2822 -65.2821 -65.2814 -65.2811 -65.2788 -65.2787
   -65.2783 -65.2780 -65.2713 -65.2711 -65.2702 -65.2699 -65.2696 -65.2692
   -65.2680 -65.2643 -65.2643 -65.2617 -65.2607 -65.2606 -65.2606 -65.2603
   -65.2601 -65.2592 -65.2576 -65.2575 -65.2571 -65.2567 -65.2566 -65.2563
   -65.2535 -65.2535 -65.2534 -65.2527 -65.2526 -65.2523 -65.2519 -65.2507
   -65.2479 -65.2475 -65.2471 -65.2469 -65.2468 -65.2463 -65.2461 -65.2461
   -65.2460 -65.2459 -65.2457 -65.2450 -65.2430 -65.2429 -65.2425 -65.2422
   -65.2420 -65.2415 -65.2399 -65.2396 -65.2389 -65.2387 -65.2387 -65.2383
   -65.2375 -65.2372 -65.2371 -65.2363 -65.2356 -65.2355 -65.2354 -65.2349
   -65.2349 -65.2344 -65.2344 -65.2316 -65.2314 -65.2313 -65.2312 -65.2300
   -65.2292 -65.2277 -65.2274 -65.2273 -65.2254 -65.2252 -65.2238 -65.2234
   -65.2167 -65.2162 -65.0868 -65.0794 -65.0793 -65.0785 -65.0781 -65.0664
   -65.0603 -65.0601 -65.0585 -65.0584 -65.0584 -65.0583 -65.0484 -65.0481
   -65.0474 -65.0472 -65.0401 -65.0398 -65.0397 -65.0397 -65.0389 -65.0367
   -65.0362 -65.0281 -65.0274 -65.0274 -65.0274 -65.0272 -65.0270 -65.0193
   -65.0190 -65.0189 -65.0163 -65.0162 -65.0072 -65.0071 -64.9946 -64.9931
   -64.9920 -64.9909 -64.9892 -64.9889 -64.9883 -64.9872 -64.9870 -64.9670
   -64.9668 -64.9645 -64.9645 -64.9622 -64.9622 -64.9621 -64.9620 -64.9620
   -12.6057  -9.8706  -9.8648  -6.2795  -6.2641  -4.2964  -3.2819  -3.2817
    -2.7004  -2.6837  -2.6831  -2.3664  -1.8235  -1.7777  -1.7581  -1.7507
    -1.7491  -1.7235  -1.2400  -1.2388  -0.7512  -0.7119  -0.5344  -0.5172
    -0.4389  -0.1365   0.0472   0.0473   0.0624   0.0674   0.0675   0.0677
     0.0678   0.1416   0.1551   0.2239   0.2270   0.2331   0.2363   0.2408
     0.2466   0.2655   0.2656   0.2656   0.2658   0.3212   0.3214   0.3216
     0.3217   0.4485   0.4858   0.4858   0.4863   0.4864   0.5248   0.5673
     0.6636   0.6636   0.6638   0.6638   0.6774   0.7000   0.7017   0.7171
     0.7171   0.7176   0.7177   0.8375   0.8376   0.8378   0.8378   0.8601
     0.8607   0.9483   0.9605   0.9606   0.9610   0.9611   0.9978   0.9978
     1.0421   1.0421   1.1123   1.1124   1.1128   1.1129   1.1737   1.1738
     1.2035   1.2040   1.2232   1.2234   1.2241   1.2243   1.2422   1.2422
     1.2761   1.2796   1.3292   1.3427   1.3433   1.3708   1.3714   1.3900
     1.3919   1.4000   1.4001   1.4005   1.4005   1.4567   1.4579   1.4614
     1.4617   1.4621   1.4622   1.5126   1.5157   1.5358   1.5362   1.5368
     1.5369   1.5459   1.5471   1.5471   1.5983   1.6070   1.6312   1.6334
     1.6339   1.6450   1.6504   1.6845   1.6846   1.6849   1.6850   1.6851
     1.6960   1.7001   1.7484   1.7488   1.7574   1.7582   1.7702   1.7705
     1.8047   1.8051   1.8053   1.8054   1.8274   1.8287   1.8295   1.8304
     1.8306   1.8574   1.8577   1.8590   1.8594   1.8907   1.8908   1.9118
     1.9215   1.9219   1.9803   1.9830   1.9879   1.9887   1.9899   1.9903
     1.9940   1.9941   2.0011   2.0034   2.0105   2.0108   2.0148   2.0334
     2.0370   2.0413   2.0430   2.0450   2.0453   2.0972   2.1053   2.1169
     2.1251   2.1252   2.1685   2.2068   2.2072   2.2075   2.2097   2.2134
     2.2142   2.2149   2.2214   2.2219   2.2310   2.2424   2.2482   2.2794
     2.2860   2.2864   2.2875   2.3052   2.3069   2.3070   2.3072   2.3092
     2.3127   2.3131   2.3328   2.3329   2.3413   2.3423   2.3424   2.4197
     2.4481   2.4632   2.4633   2.4910   2.4910   2.4916   2.4922   2.5231
     2.5237   2.5277   2.5403   2.5625   2.5635   2.5670   2.5672   2.5772
     2.5898   2.6015   2.6040   2.6041   2.6042   2.6044   2.6171   2.6373
     2.6376   2.6391   2.6418   2.6932   2.6932   2.6940   2.6943   2.7047
     2.7056   2.7300   2.7302   2.7593   2.7597   2.7645   2.7657   2.7914
     2.7914   2.8158   2.8188   2.8233   2.8395   2.8789   2.8807   2.8921
     2.8935   2.9007   2.9008   2.9163   2.9292   2.9293   2.9332   2.9335
     2.9352   2.9363   2.9522   2.9564   2.9565   2.9568   2.9570   2.9744
     2.9747   2.9749   2.9835   2.9873   3.0019   3.0040   3.0225   3.0227
     3.0230   3.0246   3.0306   3.0407   3.0604   3.0735   3.0736   3.0745
     3.0746   3.1777   3.1958   3.7105   3.7274   3.7304   3.7369   4.2404
     4.2852   4.2853   4.2855   4.2856   4.5547   4.5553   4.5560   4.5562
     4.9005   4.9076   4.9251   5.0284   5.0593   5.1091   5.1127   5.1143
     5.1167   5.3990   5.7379   5.9933   6.0152   6.0301   6.0799   6.0945
     6.0970   6.1035   6.1552   6.5528   6.6066   7.2164   7.3099   7.4058
     7.4062   7.4140   7.6019   7.9388   7.9814   8.1370   8.2664   8.4041
     8.5285   8.5318   8.5329   8.5522   8.8856   8.9172   8.9226   9.1750
     9.1800   9.1810   9.1905   9.2502   9.4618   9.5950   9.6705   9.7748
     9.7956   9.8422   9.8635   9.8714   9.9047  10.2633  10.3270  10.3556
    10.3909  10.4290  10.4747  10.4815  10.5018  10.8051  10.8631  11.0216
    11.0967  11.1788  11.2517  11.2662  11.3315  11.3875  11.4173  11.4404
    11.4779  11.5542  11.7100  12.0319  12.1050  12.1384  12.1991  12.2438
    12.2574  12.2982  12.4458  12.5102  12.7452  12.7921  12.8857  12.9536
    12.9649  13.0181  13.0322  13.0728  13.0911  13.2017  13.2048  13.2243
    13.2317  13.2771  13.3058  13.3214  13.4652  13.6048  13.6616  13.6621
    13.7238  13.8167

          k = 0.2500-0.7217 0.0000 ( 61343 PWs)   bands (ev):

  -107.8547-107.8530-107.8521-107.8505-107.8485-107.8485-107.8482-107.8475
  -107.8473-107.8467-107.8465-107.8462-107.8460-107.8452-107.8450-107.8446
  -107.8443-107.8434-107.8421-107.8417-107.8402-107.8395-107.8388-107.8384
  -107.8382-107.8374-107.8371-107.8341-107.8328-107.8323-107.8303-107.8297
  -107.8292-107.8288-107.8287-107.8278-107.6186-107.6168-107.6163-107.6145
  -107.6130-107.6127-107.6122-107.6110-107.6108-107.5951-107.5937-107.5936
  -107.5908-107.5907-107.5897-107.5896-107.5895-107.5892 -65.3063 -65.3019
   -65.3013 -65.3005 -65.3001 -65.2992 -65.2988 -65.2975 -65.2959 -65.2942
   -65.2939 -65.2929 -65.2901 -65.2884 -65.2879 -65.2877 -65.2875 -65.2850
   -65.2823 -65.2814 -65.2813 -65.2812 -65.2809 -65.2794 -65.2792 -65.2783
   -65.2775 -65.2773 -65.2747 -65.2742 -65.2696 -65.2690 -65.2686 -65.2678
   -65.2654 -65.2651 -65.2645 -65.2642 -65.2639 -65.2612 -65.2605 -65.2603
   -65.2594 -65.2587 -65.2583 -65.2579 -65.2571 -65.2545 -65.2542 -65.2540
   -65.2538 -65.2537 -65.2535 -65.2524 -65.2521 -65.2517 -65.2513 -65.2502
   -65.2499 -65.2486 -65.2484 -65.2482 -65.2479 -65.2475 -65.2459 -65.2448
   -65.2445 -65.2444 -65.2441 -65.2438 -65.2433 -65.2429 -65.2427 -65.2425
   -65.2422 -65.2412 -65.2409 -65.2402 -65.2397 -65.2394 -65.2390 -65.2378
   -65.2374 -65.2368 -65.2367 -65.2366 -65.2364 -65.2363 -65.2362 -65.2360
   -65.2342 -65.2339 -65.2335 -65.2317 -65.2314 -65.2308 -65.2305 -65.2305
   -65.2297 -65.2295 -65.2274 -65.2264 -65.2263 -65.2254 -65.2218 -65.2199
   -65.2198 -65.2161 -65.0847 -65.0842 -65.0816 -65.0750 -65.0714 -65.0707
   -65.0641 -65.0640 -65.0612 -65.0547 -65.0517 -65.0507 -65.0507 -65.0499
   -65.0487 -65.0484 -65.0434 -65.0427 -65.0421 -65.0417 -65.0355 -65.0312
   -65.0309 -65.0308 -65.0291 -65.0283 -65.0283 -65.0267 -65.0226 -65.0225
   -65.0217 -65.0216 -65.0151 -65.0105 -65.0105 -65.0064 -64.9946 -64.9928
   -64.9924 -64.9907 -64.9892 -64.9888 -64.9884 -64.9872 -64.9870 -64.9673
   -64.9659 -64.9658 -64.9632 -64.9630 -64.9622 -64.9621 -64.9620 -64.9617
   -12.6057  -9.8692  -9.8662  -6.2756  -6.2680  -4.2966  -3.4874  -2.8824
    -2.6999  -2.6812  -2.6810  -2.3662  -2.1084  -2.1077  -1.9631  -1.7859
    -1.7465  -1.2535  -1.2484  -0.8880  -0.6705  -0.6703  -0.5034  -0.3201
    -0.3193  -0.2775  -0.2522  -0.0794  -0.0793  -0.0697   0.0940   0.0955
     0.1152   0.1154   0.1316   0.1644   0.1813   0.1928   0.1934   0.2053
     0.2108   0.3094   0.3128   0.3159   0.3160   0.3884   0.3934   0.4538
     0.4545   0.4661   0.4770   0.5048   0.5049   0.5076   0.5260   0.5270
     0.5932   0.5935   0.6199   0.6213   0.6515   0.6516   0.6771   0.6861
     0.6863   0.7536   0.7537   0.7811   0.8029   0.8143   0.8146   0.8890
     0.8900   0.9409   0.9604   0.9607   0.9890   0.9891   1.0470   1.0561
     1.0565   1.0719   1.0720   1.0856   1.1244   1.1517   1.1519   1.1945
     1.1949   1.2214   1.2261   1.2270   1.2284   1.2450   1.2451   1.3039
     1.3043   1.3074   1.3077   1.3113   1.3232   1.3405   1.3417   1.3544
     1.3551   1.3823   1.3837   1.4061   1.4070   1.4082   1.4272   1.4523
     1.4930   1.5007   1.5010   1.5013   1.5024   1.5310   1.5498   1.5532
     1.5547   1.5917   1.5922   1.5926   1.5957   1.6020   1.6251   1.6461
     1.6463   1.6625   1.6626   1.6874   1.6904   1.7004   1.7005   1.7109
     1.7117   1.7272   1.7275   1.7448   1.7451   1.7602   1.7683   1.7920
     1.7978   1.8039   1.8118   1.8284   1.8303   1.8306   1.8382   1.8461
     1.8470   1.8573   1.8574   1.8683   1.8716   1.8751   1.8760   1.8768
     1.8983   1.9044   1.9268   1.9391   1.9436   1.9498   1.9547   1.9558
     1.9640   1.9644   1.9645   1.9681   1.9730   1.9755   1.9790   1.9792
     2.0364   2.0377   2.0931   2.0954   2.1088   2.1118   2.1131   2.1161
     2.1342   2.1381   2.1430   2.1435   2.1662   2.1849   2.1868   2.1902
     2.2113   2.2151   2.2454   2.2539   2.2584   2.2785   2.2794   2.2814
     2.2824   2.2842   2.2863   2.2899   2.2916   2.2997   2.3191   2.3246
     2.3652   2.3683   2.3695   2.3725   2.3782   2.3819   2.3881   2.4124
     2.4172   2.4220   2.4361   2.4597   2.4605   2.4795   2.4858   2.4864
     2.4974   2.5003   2.5309   2.5393   2.5443   2.5452   2.5716   2.5725
     2.5941   2.6000   2.6007   2.6189   2.6205   2.6424   2.6432   2.6444
     2.6475   2.6508   2.6631   2.6632   2.6680   2.6747   2.6792   2.6968
     2.7328   2.7385   2.7389   2.7428   2.7895   2.7899   2.8009   2.8033
     2.8329   2.8453   2.8460   2.8519   2.8523   2.8656   2.8690   2.8962
     2.8973   2.8974   2.9067   2.9070   2.9177   2.9200   2.9212   2.9217
     2.9240   2.9305   2.9308   2.9319   2.9345   2.9487   2.9495   2.9640
     2.9647   2.9719   2.9753   2.9755   2.9870   3.0028   3.0077   3.0139
     3.0145   3.0314   3.0618   3.0621   3.0736   3.0947   3.0952   3.2504
     3.2564   3.3628   3.3629   3.4643   3.4648   3.5703   3.7886   3.7918
     4.1694   4.1837   4.2732   4.2736   4.2870   4.5490   4.6571   4.6654
     4.6809   4.6811   4.8124   5.1260   5.1536   5.1546   5.5994   5.6382
     5.6609   5.7153   5.8915   5.9085   5.9103   6.0400   6.0484   6.1311
     6.2056   6.5762   6.6530   6.6558   6.8273   6.9046   6.9734   7.0334
     7.0343   7.2943   7.3453   7.3668   7.5794   7.7694   7.8639   7.9391
     8.4509   8.4576   8.4712   8.5608   8.7268   9.0256   9.1112   9.1397
     9.2099   9.3041   9.3201   9.4541   9.4657   9.6391   9.6485   9.6789
     9.7870   9.8615  10.0108  10.1162  10.1533  10.3405  10.4059  10.4571
    10.5027  10.5868  10.6761  10.7883  10.8284  11.0501  11.1116  11.1629
    11.2456  11.2629  11.4325  11.4585  11.4643  11.5913  11.6185  11.6890
    11.6945  11.7900  11.8361  11.8455  11.9927  12.0871  12.1376  12.1609
    12.2693  12.3531  12.3877  12.4155  12.4781  12.5070  12.5678  12.6047
    12.7030  12.7192  12.8070  12.8909  12.9378  12.9741  13.1460  13.2491
    13.2619  13.2916  13.3686  13.4052  13.4705  13.5075  13.5294  13.6310
    13.6510  13.6801

          k =-0.2500 0.1443 0.0000 ( 61417 PWs)   bands (ev):

  -107.8556-107.8524-107.8509-107.8502-107.8497-107.8486-107.8482-107.8478
  -107.8473-107.8465-107.8464-107.8458-107.8457-107.8456-107.8452-107.8445
  -107.8444-107.8442-107.8414-107.8404-107.8403-107.8401-107.8390-107.8389
  -107.8383-107.8371-107.8371-107.8348-107.8322-107.8311-107.8310-107.8298
  -107.8297-107.8291-107.8283-107.8277-107.6192-107.6163-107.6156-107.6147
  -107.6132-107.6129-107.6123-107.6109-107.6108-107.5960-107.5930-107.5920
  -107.5920-107.5905-107.5905-107.5901-107.5890-107.5890 -65.3090 -65.2999
   -65.2993 -65.2981 -65.2971 -65.2970 -65.2964 -65.2962 -65.2933 -65.2932
   -65.2923 -65.2923 -65.2906 -65.2904 -65.2859 -65.2845 -65.2845 -65.2825
   -65.2819 -65.2809 -65.2806 -65.2805 -65.2804 -65.2801 -65.2781 -65.2781
   -65.2777 -65.2774 -65.2734 -65.2734 -65.2705 -65.2702 -65.2701 -65.2690
   -65.2688 -65.2682 -65.2676 -65.2675 -65.2654 -65.2654 -65.2630 -65.2630
   -65.2597 -65.2596 -65.2593 -65.2590 -65.2582 -65.2581 -65.2572 -65.2563
   -65.2559 -65.2549 -65.2545 -65.2535 -65.2533 -65.2530 -65.2523 -65.2516
   -65.2515 -65.2497 -65.2494 -65.2494 -65.2491 -65.2490 -65.2489 -65.2465
   -65.2463 -65.2443 -65.2442 -65.2435 -65.2435 -65.2420 -65.2419 -65.2416
   -65.2411 -65.2408 -65.2408 -65.2404 -65.2402 -65.2401 -65.2401 -65.2385
   -65.2384 -65.2368 -65.2366 -65.2360 -65.2355 -65.2348 -65.2347 -65.2344
   -65.2344 -65.2338 -65.2329 -65.2309 -65.2309 -65.2292 -65.2276 -65.2276
   -65.2276 -65.2266 -65.2263 -65.2240 -65.2240 -65.2232 -65.2207 -65.2201
   -65.2170 -65.2139 -65.0826 -65.0772 -65.0771 -65.0757 -65.0754 -65.0639
   -65.0637 -65.0622 -65.0582 -65.0580 -65.0566 -65.0565 -65.0554 -65.0553
   -65.0551 -65.0435 -65.0434 -65.0400 -65.0397 -65.0386 -65.0378 -65.0377
   -65.0356 -65.0355 -65.0348 -65.0316 -65.0277 -65.0245 -65.0194 -65.0193
   -65.0183 -65.0153 -65.0152 -65.0112 -65.0074 -65.0042 -64.9951 -64.9924
   -64.9919 -64.9908 -64.9894 -64.9891 -64.9884 -64.9871 -64.9870 -64.9681
   -64.9653 -64.9643 -64.9643 -64.9629 -64.9629 -64.9625 -64.9615 -64.9615
   -12.6066  -9.8668  -9.8642  -6.2766  -6.2684  -4.3234  -3.9074  -3.2917
    -2.7279  -2.3627  -2.3502  -2.3044  -1.7692  -1.7465  -1.7184  -1.5934
    -1.5931  -1.2385  -1.1101  -1.1092  -0.9571  -0.5422  -0.5371  -0.5328
    -0.4464  -0.4389  -0.3377  -0.3258  -0.2510  -0.2506  -0.1159  -0.0829
    -0.0780   0.0197   0.0239   0.0242   0.1786   0.1987   0.2077   0.2243
     0.2303   0.2960   0.2962   0.4795   0.4848   0.5150   0.5150   0.5405
     0.5510   0.5511   0.5746   0.5748   0.6209   0.6225   0.6240   0.6246
     0.6368   0.6369   0.6772   0.6772   0.7138   0.7138   0.7424   0.7425
     0.7500   0.7934   0.7938   0.8081   0.8082   0.8303   0.8305   0.8431
     0.8432   0.8763   0.8765   0.9179   0.9864   0.9864   0.9922   1.0165
     1.0165   1.0305   1.0309   1.0663   1.0664   1.1013   1.1039   1.1039
     1.1669   1.1669   1.1916   1.1932   1.2138   1.2139   1.2589   1.2591
     1.2756   1.2961   1.3017   1.3021   1.3300   1.3712   1.3715   1.3904
     1.3905   1.3978   1.4332   1.4355   1.4466   1.4705   1.4706   1.4782
     1.5102   1.5105   1.5391   1.5759   1.5893   1.5993   1.5993   1.6119
     1.6122   1.6123   1.6485   1.6510   1.6567   1.6689   1.6690   1.6845
     1.6890   1.6893   1.7065   1.7100   1.7191   1.7277   1.7397   1.7475
     1.7477   1.7563   1.7609   1.7620   1.7644   1.7813   1.7822   1.7857
     1.7858   1.7898   1.8099   1.8132   1.8226   1.8326   1.8350   1.8453
     1.8467   1.8565   1.8576   1.8920   1.8924   1.9039   1.9041   1.9052
     1.9193   1.9270   1.9288   1.9295   1.9307   1.9363   1.9444   1.9601
     1.9844   1.9883   2.0031   2.0063   2.0154   2.0157   2.0272   2.0367
     2.0380   2.0403   2.0454   2.0691   2.0692   2.0830   2.1101   2.1191
     2.1425   2.1428   2.1585   2.1616   2.1673   2.1674   2.2297   2.2315
     2.2374   2.2460   2.2727   2.2757   2.2825   2.2861   2.2937   2.2953
     2.3221   2.3280   2.3351   2.3366   2.3416   2.3420   2.3761   2.3765
     2.4034   2.4090   2.4122   2.4133   2.4208   2.4463   2.4506   2.4520
     2.4559   2.4597   2.4880   2.4989   2.5029   2.5095   2.5099   2.5273
     2.5315   2.5318   2.5486   2.5521   2.5523   2.5528   2.5618   2.5652
     2.5889   2.5987   2.6369   2.6410   2.6462   2.6742   2.6753   2.6838
     2.6867   2.6871   2.6880   2.6914   2.7110   2.7113   2.7134   2.7259
     2.7287   2.7307   2.7342   2.7393   2.7640   2.7799   2.7799   2.7840
     2.7937   2.7940   2.8144   2.8153   2.8216   2.8230   2.8671   2.8675
     2.8676   2.8767   2.8767   2.8806   2.8910   2.8921   2.8992   2.9025
     2.9026   2.9027   2.9099   2.9100   2.9122   2.9182   2.9264   2.9267
     2.9443   2.9568   2.9569   2.9576   2.9593   2.9646   2.9661   2.9663
     2.9883   2.9972   3.0049   3.0087   3.0092   3.0135   3.0264   3.0269
     3.0986   3.1164   3.1569   3.2504   3.2738   3.2740   3.3498   3.4344
     3.4344   3.6879   3.7399   3.7405   3.7444   3.7569   4.0528   4.2460
     4.4329   4.7146   4.7157   4.9277   5.0155   5.0257   5.0643   5.8008
     5.8010   6.0166   6.1673   6.1788   6.1991   6.1996   6.4476   6.6908
     6.7403   6.8749   6.8826   7.2545   7.3432   7.4174   7.4664   7.6994
     7.7335   7.7433   7.9248   7.9858   8.1932   8.1995   8.2692   8.3503
     8.3758   8.6685   8.6701   8.7672   8.8189   8.9286   9.2188   9.2206
     9.3111   9.3835   9.5660   9.6155   9.7632   9.8133   9.9171   9.9458
     9.9723   9.9739  10.0219  10.0878  10.2589  10.3699  10.3710  10.4717
    10.5028  10.5312  10.6026  10.6216  10.7032  10.7471  10.7506  10.8183
    10.9139  10.9220  10.9345  11.0639  11.0979  11.2169  11.4207  11.4396
    11.4605  11.5002  11.5280  11.5769  11.6621  11.7631  11.9065  12.0023
    12.0125  12.1509  12.2081  12.2926  12.3156  12.4106  12.4769  12.5128
    12.5311  12.5633  12.6049  12.6672  12.8142  12.8157  12.8373  12.8701
    12.9426  12.9912  13.1033  13.1213  13.1715  13.2103  13.2117  13.3202
    13.3951  13.4669

          k = 0.2500 0.1443 0.0000 ( 61417 PWs)   bands (ev):

  -107.8556-107.8524-107.8509-107.8502-107.8497-107.8486-107.8482-107.8478
  -107.8473-107.8465-107.8464-107.8458-107.8457-107.8456-107.8452-107.8445
  -107.8444-107.8442-107.8414-107.8404-107.8403-107.8401-107.8390-107.8389
  -107.8383-107.8371-107.8371-107.8348-107.8322-107.8311-107.8310-107.8298
  -107.8297-107.8291-107.8283-107.8277-107.6192-107.6163-107.6156-107.6147
  -107.6132-107.6129-107.6123-107.6109-107.6108-107.5960-107.5930-107.5920
  -107.5920-107.5905-107.5905-107.5901-107.5890-107.5890 -65.3090 -65.2999
   -65.2993 -65.2981 -65.2971 -65.2970 -65.2964 -65.2962 -65.2933 -65.2932
   -65.2923 -65.2923 -65.2906 -65.2904 -65.2859 -65.2845 -65.2845 -65.2825
   -65.2819 -65.2809 -65.2806 -65.2805 -65.2804 -65.2801 -65.2781 -65.2781
   -65.2777 -65.2774 -65.2734 -65.2734 -65.2705 -65.2702 -65.2701 -65.2690
   -65.2688 -65.2682 -65.2676 -65.2675 -65.2654 -65.2654 -65.2630 -65.2630
   -65.2597 -65.2596 -65.2593 -65.2590 -65.2582 -65.2581 -65.2572 -65.2563
   -65.2559 -65.2549 -65.2545 -65.2535 -65.2533 -65.2530 -65.2523 -65.2516
   -65.2515 -65.2497 -65.2494 -65.2494 -65.2491 -65.2490 -65.2489 -65.2465
   -65.2463 -65.2443 -65.2442 -65.2435 -65.2435 -65.2420 -65.2419 -65.2416
   -65.2411 -65.2408 -65.2408 -65.2404 -65.2402 -65.2401 -65.2401 -65.2385
   -65.2384 -65.2368 -65.2366 -65.2360 -65.2355 -65.2348 -65.2347 -65.2344
   -65.2344 -65.2338 -65.2329 -65.2309 -65.2309 -65.2292 -65.2276 -65.2276
   -65.2276 -65.2266 -65.2263 -65.2240 -65.2240 -65.2232 -65.2207 -65.2201
   -65.2170 -65.2139 -65.0826 -65.0772 -65.0771 -65.0757 -65.0754 -65.0639
   -65.0637 -65.0622 -65.0582 -65.0580 -65.0566 -65.0565 -65.0554 -65.0553
   -65.0551 -65.0435 -65.0434 -65.0400 -65.0397 -65.0386 -65.0378 -65.0377
   -65.0356 -65.0355 -65.0348 -65.0316 -65.0277 -65.0245 -65.0194 -65.0193
   -65.0183 -65.0153 -65.0152 -65.0112 -65.0074 -65.0042 -64.9951 -64.9924
   -64.9919 -64.9908 -64.9894 -64.9891 -64.9884 -64.9871 -64.9870 -64.9681
   -64.9653 -64.9643 -64.9643 -64.9629 -64.9629 -64.9625 -64.9615 -64.9615
   -12.6066  -9.8669  -9.8642  -6.2766  -6.2684  -4.3234  -3.9074  -3.2917
    -2.7279  -2.3627  -2.3502  -2.3044  -1.7693  -1.7466  -1.7183  -1.5934
    -1.5931  -1.2385  -1.1101  -1.1092  -0.9571  -0.5422  -0.5371  -0.5328
    -0.4464  -0.4389  -0.3377  -0.3258  -0.2510  -0.2506  -0.1159  -0.0829
    -0.0780   0.0197   0.0239   0.0242   0.1785   0.1988   0.2077   0.2244
     0.2303   0.2960   0.2962   0.4795   0.4848   0.5150   0.5150   0.5405
     0.5510   0.5511   0.5746   0.5748   0.6209   0.6225   0.6240   0.6246
     0.6368   0.6369   0.6772   0.6772   0.7138   0.7138   0.7424   0.7425
     0.7500   0.7934   0.7938   0.8081   0.8082   0.8303   0.8305   0.8431
     0.8432   0.8763   0.8765   0.9179   0.9864   0.9864   0.9922   1.0165
     1.0165   1.0305   1.0309   1.0663   1.0664   1.1013   1.1039   1.1039
     1.1669   1.1669   1.1916   1.1932   1.2138   1.2139   1.2589   1.2591
     1.2756   1.2961   1.3017   1.3021   1.3300   1.3712   1.3715   1.3904
     1.3905   1.3978   1.4332   1.4355   1.4466   1.4705   1.4706   1.4782
     1.5102   1.5105   1.5391   1.5759   1.5893   1.5993   1.5993   1.6119
     1.6122   1.6123   1.6485   1.6510   1.6567   1.6689   1.6690   1.6845
     1.6890   1.6893   1.7065   1.7100   1.7191   1.7277   1.7397   1.7475
     1.7477   1.7563   1.7609   1.7620   1.7644   1.7813   1.7822   1.7857
     1.7858   1.7898   1.8099   1.8132   1.8226   1.8326   1.8350   1.8453
     1.8467   1.8565   1.8576   1.8920   1.8924   1.9039   1.9041   1.9052
     1.9193   1.9270   1.9288   1.9295   1.9307   1.9363   1.9444   1.9601
     1.9844   1.9883   2.0031   2.0063   2.0154   2.0157   2.0272   2.0367
     2.0380   2.0403   2.0454   2.0691   2.0692   2.0830   2.1101   2.1191
     2.1425   2.1428   2.1585   2.1616   2.1673   2.1674   2.2297   2.2315
     2.2374   2.2460   2.2727   2.2757   2.2825   2.2861   2.2937   2.2953
     2.3221   2.3280   2.3351   2.3366   2.3416   2.3420   2.3761   2.3765
     2.4034   2.4090   2.4122   2.4133   2.4208   2.4463   2.4506   2.4520
     2.4559   2.4597   2.4880   2.4989   2.5029   2.5095   2.5099   2.5273
     2.5315   2.5318   2.5486   2.5521   2.5523   2.5528   2.5618   2.5652
     2.5889   2.5987   2.6369   2.6410   2.6462   2.6742   2.6753   2.6838
     2.6867   2.6871   2.6880   2.6914   2.7110   2.7113   2.7134   2.7259
     2.7287   2.7307   2.7342   2.7393   2.7640   2.7799   2.7799   2.7840
     2.7937   2.7940   2.8144   2.8153   2.8216   2.8230   2.8671   2.8675
     2.8676   2.8767   2.8767   2.8806   2.8910   2.8921   2.8992   2.9025
     2.9026   2.9027   2.9099   2.9100   2.9122   2.9182   2.9264   2.9267
     2.9443   2.9568   2.9569   2.9576   2.9593   2.9646   2.9661   2.9663
     2.9883   2.9972   3.0049   3.0087   3.0092   3.0135   3.0264   3.0269
     3.0986   3.1164   3.1569   3.2504   3.2738   3.2740   3.3498   3.4344
     3.4344   3.6879   3.7399   3.7405   3.7444   3.7569   4.0528   4.2460
     4.4329   4.7146   4.7157   4.9277   5.0155   5.0257   5.0643   5.8008
     5.8010   6.0166   6.1673   6.1788   6.1991   6.1996   6.4476   6.6908
     6.7403   6.8749   6.8826   7.2545   7.3431   7.4174   7.4664   7.6994
     7.7335   7.7433   7.9248   7.9858   8.1932   8.1995   8.2692   8.3503
     8.3758   8.6685   8.6701   8.7672   8.8189   8.9286   9.2188   9.2206
     9.3111   9.3835   9.5660   9.6155   9.7632   9.8133   9.9171   9.9458
     9.9723   9.9739  10.0219  10.0878  10.2589  10.3699  10.3710  10.4717
    10.5028  10.5312  10.6026  10.6216  10.7032  10.7471  10.7506  10.8183
    10.9139  10.9220  10.9345  11.0639  11.0979  11.2169  11.4207  11.4396
    11.4605  11.5002  11.5280  11.5769  11.6621  11.7631  11.9065  12.0023
    12.0125  12.1509  12.2081  12.2926  12.3156  12.4106  12.4769  12.5128
    12.5311  12.5633  12.6049  12.6672  12.8142  12.8158  12.8373  12.8701
    12.9426  12.9912  13.1033  13.1213  13.1715  13.2103  13.2117  13.3202
    13.3951  13.4668

          k = 0.5000-0.2887 0.0000 ( 61408 PWs)   bands (ev):

  -107.8546-107.8536-107.8513-107.8505-107.8496-107.8485-107.8477-107.8472
  -107.8469-107.8468-107.8465-107.8464-107.8462-107.8455-107.8448-107.8446
  -107.8443-107.8432-107.8427-107.8406-107.8405-107.8402-107.8384-107.8384
  -107.8381-107.8374-107.8372-107.8339-107.8333-107.8313-107.8312-107.8295
  -107.8289-107.8289-107.8288-107.8279-107.6186-107.6172-107.6157-107.6148
  -107.6130-107.6127-107.6121-107.6110-107.6108-107.5948-107.5947-107.5922
  -107.5922-107.5897-107.5897-107.5896-107.5895-107.5895 -65.3053 -65.3047
   -65.3024 -65.3010 -65.2972 -65.2971 -65.2960 -65.2958 -65.2952 -65.2950
   -65.2943 -65.2941 -65.2939 -65.2935 -65.2899 -65.2835 -65.2831 -65.2830
   -65.2826 -65.2825 -65.2822 -65.2821 -65.2814 -65.2811 -65.2788 -65.2787
   -65.2783 -65.2780 -65.2713 -65.2711 -65.2702 -65.2699 -65.2696 -65.2692
   -65.2680 -65.2643 -65.2643 -65.2617 -65.2607 -65.2606 -65.2606 -65.2603
   -65.2601 -65.2592 -65.2576 -65.2575 -65.2571 -65.2567 -65.2566 -65.2563
   -65.2535 -65.2535 -65.2534 -65.2527 -65.2526 -65.2523 -65.2519 -65.2507
   -65.2479 -65.2475 -65.2471 -65.2469 -65.2468 -65.2463 -65.2461 -65.2461
   -65.2460 -65.2459 -65.2457 -65.2450 -65.2430 -65.2429 -65.2425 -65.2422
   -65.2420 -65.2415 -65.2399 -65.2396 -65.2389 -65.2387 -65.2387 -65.2383
   -65.2375 -65.2372 -65.2371 -65.2363 -65.2356 -65.2355 -65.2354 -65.2349
   -65.2349 -65.2344 -65.2344 -65.2316 -65.2314 -65.2313 -65.2312 -65.2300
   -65.2292 -65.2277 -65.2274 -65.2273 -65.2254 -65.2252 -65.2238 -65.2234
   -65.2167 -65.2162 -65.0868 -65.0794 -65.0793 -65.0785 -65.0781 -65.0664
   -65.0603 -65.0601 -65.0585 -65.0584 -65.0584 -65.0583 -65.0484 -65.0481
   -65.0474 -65.0472 -65.0401 -65.0398 -65.0397 -65.0397 -65.0389 -65.0367
   -65.0362 -65.0281 -65.0274 -65.0274 -65.0274 -65.0272 -65.0270 -65.0193
   -65.0190 -65.0189 -65.0163 -65.0162 -65.0072 -65.0071 -64.9946 -64.9931
   -64.9920 -64.9909 -64.9892 -64.9889 -64.9883 -64.9872 -64.9870 -64.9670
   -64.9668 -64.9645 -64.9645 -64.9622 -64.9622 -64.9621 -64.9620 -64.9620
   -12.6057  -9.8704  -9.8650  -6.2799  -6.2637  -4.2964  -3.2819  -3.2817
    -2.7004  -2.6837  -2.6831  -2.3664  -1.8234  -1.7777  -1.7581  -1.7507
    -1.7491  -1.7236  -1.2400  -1.2388  -0.7512  -0.7119  -0.5344  -0.5172
    -0.4389  -0.1365   0.0472   0.0473   0.0624   0.0674   0.0675   0.0677
     0.0678   0.1418   0.1551   0.2236   0.2270   0.2331   0.2363   0.2408
     0.2466   0.2655   0.2656   0.2656   0.2658   0.3212   0.3214   0.3216
     0.3217   0.4485   0.4858   0.4858   0.4863   0.4864   0.5248   0.5673
     0.6636   0.6636   0.6638   0.6638   0.6774   0.7000   0.7017   0.7171
     0.7171   0.7176   0.7177   0.8375   0.8376   0.8378   0.8378   0.8601
     0.8607   0.9483   0.9605   0.9606   0.9610   0.9611   0.9978   0.9978
     1.0421   1.0421   1.1123   1.1124   1.1128   1.1129   1.1737   1.1738
     1.2035   1.2040   1.2232   1.2234   1.2241   1.2243   1.2422   1.2422
     1.2761   1.2796   1.3292   1.3427   1.3433   1.3708   1.3714   1.3900
     1.3919   1.4000   1.4001   1.4005   1.4005   1.4567   1.4579   1.4614
     1.4617   1.4621   1.4622   1.5126   1.5157   1.5358   1.5362   1.5368
     1.5369   1.5459   1.5471   1.5471   1.5983   1.6070   1.6312   1.6334
     1.6339   1.6450   1.6504   1.6845   1.6846   1.6849   1.6850   1.6851
     1.6960   1.7001   1.7484   1.7488   1.7574   1.7582   1.7702   1.7705
     1.8047   1.8051   1.8053   1.8054   1.8274   1.8287   1.8295   1.8304
     1.8306   1.8574   1.8577   1.8590   1.8594   1.8907   1.8908   1.9118
     1.9215   1.9219   1.9803   1.9830   1.9879   1.9887   1.9899   1.9903
     1.9940   1.9941   2.0011   2.0034   2.0105   2.0108   2.0148   2.0334
     2.0370   2.0413   2.0429   2.0450   2.0453   2.0972   2.1054   2.1169
     2.1251   2.1252   2.1685   2.2068   2.2072   2.2075   2.2097   2.2134
     2.2142   2.2149   2.2214   2.2219   2.2310   2.2424   2.2482   2.2794
     2.2860   2.2864   2.2875   2.3051   2.3069   2.3070   2.3072   2.3092
     2.3127   2.3131   2.3328   2.3329   2.3413   2.3423   2.3424   2.4197
     2.4481   2.4632   2.4634   2.4910   2.4910   2.4916   2.4922   2.5231
     2.5237   2.5277   2.5403   2.5625   2.5635   2.5670   2.5672   2.5772
     2.5898   2.6015   2.6040   2.6041   2.6042   2.6044   2.6171   2.6373
     2.6376   2.6391   2.6418   2.6932   2.6932   2.6940   2.6943   2.7047
     2.7056   2.7300   2.7302   2.7593   2.7597   2.7645   2.7657   2.7914
     2.7914   2.8158   2.8188   2.8233   2.8395   2.8789   2.8807   2.8921
     2.8935   2.9007   2.9008   2.9163   2.9292   2.9293   2.9332   2.9335
     2.9352   2.9363   2.9522   2.9564   2.9565   2.9568   2.9570   2.9744
     2.9747   2.9749   2.9835   2.9873   3.0019   3.0040   3.0225   3.0227
     3.0230   3.0246   3.0306   3.0407   3.0604   3.0735   3.0736   3.0745
     3.0746   3.1777   3.1958   3.7105   3.7274   3.7304   3.7369   4.2404
     4.2852   4.2853   4.2855   4.2856   4.5547   4.5553   4.5560   4.5562
     4.9005   4.9076   4.9251   5.0284   5.0593   5.1091   5.1127   5.1143
     5.1167   5.3990   5.7379   5.9933   6.0152   6.0301   6.0799   6.0945
     6.0970   6.1035   6.1552   6.5528   6.6066   7.2165   7.3098   7.4058
     7.4062   7.4140   7.6020   7.9389   7.9813   8.1370   8.2664   8.4040
     8.5285   8.5318   8.5329   8.5522   8.8856   8.9172   8.9226   9.1750
     9.1800   9.1810   9.1905   9.2501   9.4618   9.5950   9.6706   9.7748
     9.7956   9.8422   9.8635   9.8714   9.9047  10.2633  10.3270  10.3556
    10.3909  10.4290  10.4747  10.4815  10.5018  10.8051  10.8630  11.0216
    11.0967  11.1788  11.2516  11.2662  11.3315  11.3875  11.4173  11.4404
    11.4779  11.5542  11.7100  12.0318  12.1050  12.1384  12.1990  12.2438
    12.2575  12.2983  12.4460  12.5102  12.7452  12.7922  12.8857  12.9536
    12.9650  13.0181  13.0322  13.0728  13.0911  13.2016  13.2048  13.2243
    13.2317  13.2771  13.3056  13.3214  13.4652  13.6048  13.6616  13.6621
    13.7238  13.8167

          k =-0.5000-0.2887 0.0000 ( 61408 PWs)   bands (ev):

  -107.8546-107.8536-107.8513-107.8505-107.8496-107.8485-107.8477-107.8472
  -107.8469-107.8468-107.8465-107.8464-107.8462-107.8455-107.8448-107.8446
  -107.8443-107.8432-107.8427-107.8406-107.8405-107.8402-107.8384-107.8384
  -107.8381-107.8374-107.8372-107.8339-107.8333-107.8313-107.8312-107.8295
  -107.8289-107.8289-107.8288-107.8279-107.6186-107.6172-107.6157-107.6148
  -107.6130-107.6127-107.6121-107.6110-107.6108-107.5948-107.5947-107.5922
  -107.5922-107.5897-107.5897-107.5896-107.5895-107.5895 -65.3053 -65.3047
   -65.3024 -65.3010 -65.2972 -65.2971 -65.2960 -65.2958 -65.2952 -65.2950
   -65.2943 -65.2941 -65.2939 -65.2935 -65.2899 -65.2835 -65.2831 -65.2830
   -65.2826 -65.2825 -65.2822 -65.2821 -65.2814 -65.2811 -65.2788 -65.2787
   -65.2783 -65.2780 -65.2713 -65.2711 -65.2702 -65.2699 -65.2696 -65.2692
   -65.2680 -65.2643 -65.2643 -65.2617 -65.2607 -65.2606 -65.2606 -65.2603
   -65.2601 -65.2592 -65.2576 -65.2575 -65.2571 -65.2567 -65.2566 -65.2563
   -65.2535 -65.2535 -65.2534 -65.2527 -65.2526 -65.2523 -65.2519 -65.2507
   -65.2479 -65.2475 -65.2471 -65.2469 -65.2468 -65.2463 -65.2461 -65.2461
   -65.2460 -65.2459 -65.2457 -65.2450 -65.2430 -65.2429 -65.2425 -65.2422
   -65.2420 -65.2415 -65.2399 -65.2396 -65.2389 -65.2387 -65.2387 -65.2383
   -65.2375 -65.2372 -65.2371 -65.2363 -65.2356 -65.2355 -65.2354 -65.2349
   -65.2349 -65.2344 -65.2344 -65.2316 -65.2314 -65.2313 -65.2312 -65.2300
   -65.2292 -65.2277 -65.2274 -65.2273 -65.2254 -65.2252 -65.2238 -65.2234
   -65.2167 -65.2162 -65.0868 -65.0794 -65.0793 -65.0785 -65.0781 -65.0664
   -65.0603 -65.0601 -65.0585 -65.0584 -65.0584 -65.0583 -65.0484 -65.0481
   -65.0474 -65.0472 -65.0401 -65.0398 -65.0397 -65.0397 -65.0389 -65.0367
   -65.0362 -65.0281 -65.0274 -65.0274 -65.0274 -65.0272 -65.0270 -65.0193
   -65.0190 -65.0189 -65.0163 -65.0162 -65.0072 -65.0071 -64.9946 -64.9931
   -64.9920 -64.9909 -64.9892 -64.9889 -64.9883 -64.9872 -64.9870 -64.9670
   -64.9668 -64.9645 -64.9645 -64.9622 -64.9622 -64.9621 -64.9620 -64.9620
   -12.6057  -9.8704  -9.8650  -6.2799  -6.2638  -4.2964  -3.2819  -3.2817
    -2.7004  -2.6837  -2.6831  -2.3664  -1.8235  -1.7777  -1.7581  -1.7507
    -1.7491  -1.7235  -1.2400  -1.2388  -0.7512  -0.7119  -0.5344  -0.5172
    -0.4389  -0.1365   0.0472   0.0473   0.0624   0.0674   0.0675   0.0677
     0.0678   0.1417   0.1551   0.2238   0.2270   0.2331   0.2363   0.2408
     0.2466   0.2655   0.2656   0.2656   0.2658   0.3212   0.3214   0.3216
     0.3217   0.4485   0.4858   0.4858   0.4863   0.4864   0.5248   0.5673
     0.6636   0.6636   0.6638   0.6638   0.6774   0.7000   0.7017   0.7171
     0.7171   0.7176   0.7177   0.8375   0.8376   0.8378   0.8378   0.8601
     0.8607   0.9483   0.9605   0.9606   0.9610   0.9611   0.9978   0.9978
     1.0421   1.0421   1.1123   1.1124   1.1128   1.1129   1.1737   1.1738
     1.2035   1.2040   1.2232   1.2234   1.2241   1.2243   1.2422   1.2422
     1.2761   1.2796   1.3292   1.3427   1.3433   1.3708   1.3714   1.3900
     1.3919   1.4000   1.4001   1.4005   1.4005   1.4567   1.4579   1.4614
     1.4617   1.4621   1.4622   1.5126   1.5157   1.5358   1.5362   1.5368
     1.5369   1.5459   1.5471   1.5471   1.5983   1.6070   1.6312   1.6334
     1.6339   1.6450   1.6504   1.6845   1.6846   1.6849   1.6850   1.6851
     1.6960   1.7001   1.7484   1.7488   1.7574   1.7582   1.7702   1.7705
     1.8047   1.8051   1.8053   1.8054   1.8274   1.8287   1.8295   1.8304
     1.8306   1.8574   1.8577   1.8590   1.8594   1.8907   1.8908   1.9118
     1.9215   1.9219   1.9803   1.9830   1.9879   1.9887   1.9899   1.9903
     1.9940   1.9941   2.0011   2.0034   2.0105   2.0108   2.0148   2.0334
     2.0370   2.0413   2.0429   2.0450   2.0453   2.0972   2.1054   2.1169
     2.1251   2.1252   2.1685   2.2068   2.2072   2.2075   2.2097   2.2134
     2.2142   2.2149   2.2214   2.2219   2.2310   2.2424   2.2482   2.2794
     2.2860   2.2864   2.2875   2.3052   2.3069   2.3070   2.3072   2.3092
     2.3127   2.3131   2.3328   2.3329   2.3413   2.3423   2.3424   2.4197
     2.4481   2.4632   2.4634   2.4910   2.4910   2.4916   2.4922   2.5231
     2.5237   2.5277   2.5403   2.5625   2.5635   2.5670   2.5672   2.5772
     2.5898   2.6015   2.6040   2.6041   2.6042   2.6044   2.6171   2.6373
     2.6376   2.6391   2.6418   2.6932   2.6932   2.6940   2.6943   2.7047
     2.7056   2.7300   2.7302   2.7593   2.7597   2.7645   2.7657   2.7914
     2.7914   2.8158   2.8188   2.8233   2.8395   2.8789   2.8807   2.8921
     2.8935   2.9007   2.9008   2.9163   2.9292   2.9293   2.9332   2.9335
     2.9352   2.9363   2.9522   2.9564   2.9565   2.9568   2.9570   2.9744
     2.9747   2.9749   2.9835   2.9873   3.0019   3.0040   3.0225   3.0227
     3.0230   3.0246   3.0306   3.0407   3.0604   3.0735   3.0736   3.0745
     3.0746   3.1777   3.1958   3.7105   3.7274   3.7304   3.7369   4.2404
     4.2852   4.2853   4.2855   4.2856   4.5547   4.5553   4.5560   4.5562
     4.9005   4.9076   4.9251   5.0284   5.0593   5.1091   5.1127   5.1143
     5.1167   5.3990   5.7379   5.9933   6.0152   6.0301   6.0799   6.0945
     6.0970   6.1035   6.1552   6.5528   6.6066   7.2165   7.3098   7.4058
     7.4062   7.4140   7.6020   7.9389   7.9813   8.1370   8.2664   8.4040
     8.5285   8.5318   8.5329   8.5522   8.8856   8.9172   8.9226   9.1750
     9.1800   9.1810   9.1905   9.2501   9.4618   9.5950   9.6706   9.7748
     9.7956   9.8422   9.8635   9.8714   9.9047  10.2633  10.3270  10.3556
    10.3909  10.4290  10.4747  10.4815  10.5018  10.8051  10.8630  11.0216
    11.0967  11.1788  11.2516  11.2662  11.3315  11.3875  11.4173  11.4404
    11.4779  11.5542  11.7100  12.0318  12.1050  12.1384  12.1990  12.2438
    12.2575  12.2983  12.4460  12.5102  12.7451  12.7923  12.8857  12.9536
    12.9649  13.0181  13.0322  13.0728  13.0911  13.2016  13.2048  13.2243
    13.2317  13.2771  13.3056  13.3214  13.4652  13.6048  13.6616  13.6621
    13.7238  13.8168

          k =-0.2500-0.7217 0.0000 ( 61343 PWs)   bands (ev):

  -107.8547-107.8530-107.8521-107.8505-107.8485-107.8485-107.8482-107.8475
  -107.8473-107.8467-107.8465-107.8462-107.8460-107.8452-107.8450-107.8446
  -107.8443-107.8434-107.8421-107.8417-107.8402-107.8395-107.8388-107.8384
  -107.8382-107.8374-107.8371-107.8341-107.8328-107.8323-107.8303-107.8297
  -107.8292-107.8288-107.8287-107.8278-107.6186-107.6168-107.6163-107.6145
  -107.6130-107.6127-107.6122-107.6110-107.6108-107.5951-107.5937-107.5936
  -107.5908-107.5907-107.5897-107.5896-107.5895-107.5892 -65.3063 -65.3019
   -65.3013 -65.3005 -65.3001 -65.2992 -65.2988 -65.2975 -65.2959 -65.2942
   -65.2939 -65.2929 -65.2901 -65.2884 -65.2879 -65.2877 -65.2875 -65.2850
   -65.2823 -65.2814 -65.2813 -65.2812 -65.2809 -65.2794 -65.2792 -65.2783
   -65.2775 -65.2773 -65.2747 -65.2742 -65.2696 -65.2690 -65.2686 -65.2678
   -65.2654 -65.2651 -65.2645 -65.2642 -65.2639 -65.2612 -65.2605 -65.2603
   -65.2594 -65.2587 -65.2583 -65.2579 -65.2571 -65.2545 -65.2542 -65.2540
   -65.2538 -65.2537 -65.2535 -65.2524 -65.2521 -65.2517 -65.2513 -65.2502
   -65.2499 -65.2486 -65.2484 -65.2482 -65.2479 -65.2475 -65.2459 -65.2448
   -65.2445 -65.2444 -65.2441 -65.2438 -65.2433 -65.2429 -65.2427 -65.2425
   -65.2422 -65.2412 -65.2409 -65.2402 -65.2397 -65.2394 -65.2390 -65.2378
   -65.2374 -65.2368 -65.2367 -65.2366 -65.2364 -65.2363 -65.2362 -65.2360
   -65.2342 -65.2339 -65.2335 -65.2317 -65.2314 -65.2308 -65.2305 -65.2305
   -65.2297 -65.2295 -65.2274 -65.2264 -65.2263 -65.2254 -65.2218 -65.2199
   -65.2198 -65.2161 -65.0847 -65.0842 -65.0816 -65.0750 -65.0714 -65.0707
   -65.0641 -65.0640 -65.0612 -65.0547 -65.0517 -65.0507 -65.0507 -65.0499
   -65.0487 -65.0484 -65.0434 -65.0427 -65.0421 -65.0417 -65.0355 -65.0312
   -65.0309 -65.0308 -65.0291 -65.0283 -65.0283 -65.0267 -65.0226 -65.0225
   -65.0217 -65.0216 -65.0151 -65.0105 -65.0105 -65.0064 -64.9946 -64.9928
   -64.9924 -64.9907 -64.9892 -64.9888 -64.9884 -64.9872 -64.9870 -64.9673
   -64.9659 -64.9658 -64.9632 -64.9630 -64.9622 -64.9621 -64.9620 -64.9617
   -12.6057  -9.8691  -9.8663  -6.2757  -6.2679  -4.2966  -3.4874  -2.8824
    -2.6999  -2.6812  -2.6810  -2.3662  -2.1084  -2.1077  -1.9631  -1.7858
    -1.7466  -1.2535  -1.2484  -0.8880  -0.6705  -0.6703  -0.5034  -0.3201
    -0.3193  -0.2775  -0.2522  -0.0794  -0.0793  -0.0697   0.0940   0.0955
     0.1152   0.1154   0.1316   0.1645   0.1813   0.1928   0.1934   0.2052
     0.2108   0.3094   0.3128   0.3159   0.3160   0.3884   0.3934   0.4538
     0.4545   0.4661   0.4770   0.5048   0.5049   0.5076   0.5260   0.5270
     0.5932   0.5935   0.6199   0.6213   0.6515   0.6516   0.6771   0.6861
     0.6863   0.7536   0.7537   0.7811   0.8029   0.8143   0.8146   0.8890
     0.8900   0.9409   0.9604   0.9607   0.9890   0.9891   1.0470   1.0561
     1.0565   1.0719   1.0720   1.0856   1.1244   1.1517   1.1519   1.1945
     1.1949   1.2214   1.2261   1.2270   1.2284   1.2450   1.2451   1.3039
     1.3043   1.3074   1.3077   1.3113   1.3232   1.3405   1.3417   1.3544
     1.3551   1.3823   1.3837   1.4061   1.4070   1.4082   1.4272   1.4523
     1.4930   1.5007   1.5010   1.5013   1.5024   1.5310   1.5498   1.5532
     1.5547   1.5917   1.5922   1.5926   1.5957   1.6020   1.6251   1.6461
     1.6463   1.6625   1.6626   1.6874   1.6904   1.7004   1.7005   1.7109
     1.7117   1.7272   1.7275   1.7448   1.7451   1.7602   1.7683   1.7920
     1.7978   1.8039   1.8118   1.8284   1.8303   1.8306   1.8382   1.8461
     1.8470   1.8573   1.8574   1.8683   1.8716   1.8751   1.8760   1.8768
     1.8983   1.9044   1.9268   1.9391   1.9436   1.9498   1.9547   1.9558
     1.9640   1.9644   1.9645   1.9681   1.9730   1.9755   1.9790   1.9792
     2.0364   2.0377   2.0931   2.0954   2.1088   2.1118   2.1131   2.1161
     2.1342   2.1381   2.1430   2.1435   2.1662   2.1849   2.1868   2.1902
     2.2114   2.2151   2.2454   2.2539   2.2584   2.2785   2.2794   2.2814
     2.2824   2.2842   2.2863   2.2899   2.2916   2.2997   2.3191   2.3246
     2.3652   2.3683   2.3695   2.3725   2.3782   2.3819   2.3881   2.4124
     2.4172   2.4220   2.4361   2.4597   2.4605   2.4795   2.4858   2.4864
     2.4974   2.5003   2.5309   2.5393   2.5443   2.5452   2.5716   2.5725
     2.5941   2.6000   2.6007   2.6189   2.6205   2.6424   2.6432   2.6444
     2.6475   2.6508   2.6631   2.6632   2.6680   2.6747   2.6792   2.6968
     2.7328   2.7385   2.7389   2.7428   2.7895   2.7899   2.8009   2.8033
     2.8329   2.8453   2.8460   2.8519   2.8523   2.8656   2.8690   2.8962
     2.8973   2.8974   2.9067   2.9070   2.9177   2.9200   2.9212   2.9217
     2.9240   2.9305   2.9308   2.9319   2.9345   2.9487   2.9495   2.9640
     2.9647   2.9719   2.9753   2.9755   2.9870   3.0028   3.0077   3.0139
     3.0145   3.0314   3.0618   3.0621   3.0736   3.0947   3.0952   3.2504
     3.2564   3.3628   3.3629   3.4643   3.4648   3.5703   3.7886   3.7918
     4.1694   4.1837   4.2732   4.2736   4.2870   4.5490   4.6571   4.6654
     4.6809   4.6811   4.8124   5.1260   5.1536   5.1546   5.5994   5.6382
     5.6609   5.7153   5.8915   5.9085   5.9103   6.0400   6.0484   6.1311
     6.2056   6.5762   6.6530   6.6558   6.8273   6.9046   6.9734   7.0334
     7.0343   7.2943   7.3453   7.3668   7.5794   7.7694   7.8639   7.9391
     8.4509   8.4576   8.4712   8.5608   8.7268   9.0256   9.1112   9.1397
     9.2099   9.3041   9.3201   9.4541   9.4657   9.6391   9.6485   9.6789
     9.7870   9.8615  10.0108  10.1162  10.1533  10.3405  10.4059  10.4571
    10.5027  10.5868  10.6761  10.7883  10.8284  11.0501  11.1116  11.1629
    11.2456  11.2629  11.4325  11.4585  11.4643  11.5913  11.6186  11.6890
    11.6945  11.7900  11.8361  11.8455  11.9927  12.0871  12.1376  12.1609
    12.2693  12.3531  12.3877  12.4155  12.4781  12.5070  12.5678  12.6047
    12.7030  12.7192  12.8070  12.8908  12.9378  12.9741  13.1460  13.2491
    13.2620  13.2916  13.3686  13.4052  13.4705  13.5075  13.5294  13.6310
    13.6510  13.6800

          k =-0.5000-0.5774 0.0000 ( 61343 PWs)   bands (ev):

  -107.8547-107.8530-107.8521-107.8505-107.8485-107.8485-107.8482-107.8475
  -107.8473-107.8467-107.8465-107.8462-107.8460-107.8452-107.8450-107.8446
  -107.8443-107.8434-107.8421-107.8417-107.8402-107.8395-107.8388-107.8384
  -107.8382-107.8374-107.8371-107.8341-107.8328-107.8323-107.8303-107.8297
  -107.8292-107.8288-107.8287-107.8278-107.6186-107.6168-107.6163-107.6145
  -107.6130-107.6127-107.6122-107.6110-107.6108-107.5951-107.5937-107.5936
  -107.5908-107.5907-107.5897-107.5896-107.5895-107.5892 -65.3063 -65.3019
   -65.3013 -65.3005 -65.3001 -65.2992 -65.2988 -65.2975 -65.2959 -65.2942
   -65.2939 -65.2929 -65.2901 -65.2884 -65.2879 -65.2877 -65.2875 -65.2850
   -65.2823 -65.2814 -65.2813 -65.2812 -65.2809 -65.2794 -65.2792 -65.2783
   -65.2775 -65.2773 -65.2747 -65.2742 -65.2696 -65.2690 -65.2686 -65.2678
   -65.2654 -65.2651 -65.2645 -65.2642 -65.2639 -65.2612 -65.2605 -65.2603
   -65.2594 -65.2587 -65.2583 -65.2579 -65.2571 -65.2545 -65.2542 -65.2540
   -65.2538 -65.2537 -65.2535 -65.2524 -65.2521 -65.2517 -65.2513 -65.2502
   -65.2499 -65.2486 -65.2484 -65.2482 -65.2479 -65.2475 -65.2459 -65.2448
   -65.2445 -65.2444 -65.2441 -65.2438 -65.2433 -65.2429 -65.2427 -65.2425
   -65.2422 -65.2412 -65.2409 -65.2402 -65.2397 -65.2394 -65.2390 -65.2378
   -65.2374 -65.2368 -65.2367 -65.2366 -65.2364 -65.2363 -65.2362 -65.2360
   -65.2342 -65.2339 -65.2335 -65.2317 -65.2314 -65.2308 -65.2305 -65.2305
   -65.2297 -65.2295 -65.2274 -65.2264 -65.2263 -65.2254 -65.2218 -65.2199
   -65.2198 -65.2161 -65.0847 -65.0842 -65.0816 -65.0750 -65.0714 -65.0707
   -65.0641 -65.0640 -65.0612 -65.0547 -65.0517 -65.0507 -65.0507 -65.0499
   -65.0487 -65.0484 -65.0434 -65.0427 -65.0421 -65.0417 -65.0355 -65.0312
   -65.0309 -65.0308 -65.0291 -65.0283 -65.0283 -65.0267 -65.0226 -65.0225
   -65.0217 -65.0216 -65.0151 -65.0105 -65.0105 -65.0064 -64.9946 -64.9929
   -64.9924 -64.9908 -64.9892 -64.9888 -64.9884 -64.9872 -64.9870 -64.9673
   -64.9659 -64.9658 -64.9632 -64.9630 -64.9622 -64.9621 -64.9620 -64.9617
   -12.6057  -9.8689  -9.8664  -6.2760  -6.2676  -4.2966  -3.4874  -2.8824
    -2.6999  -2.6812  -2.6810  -2.3662  -2.1084  -2.1077  -1.9631  -1.7859
    -1.7466  -1.2535  -1.2484  -0.8880  -0.6705  -0.6703  -0.5034  -0.3201
    -0.3193  -0.2775  -0.2522  -0.0794  -0.0793  -0.0697   0.0940   0.0955
     0.1152   0.1154   0.1316   0.1646   0.1813   0.1928   0.1934   0.2050
     0.2108   0.3094   0.3128   0.3159   0.3160   0.3884   0.3934   0.4538
     0.4545   0.4661   0.4770   0.5048   0.5049   0.5076   0.5260   0.5270
     0.5932   0.5935   0.6199   0.6213   0.6515   0.6516   0.6771   0.6861
     0.6863   0.7536   0.7537   0.7811   0.8029   0.8143   0.8146   0.8890
     0.8900   0.9409   0.9604   0.9607   0.9890   0.9891   1.0470   1.0561
     1.0565   1.0720   1.0720   1.0856   1.1244   1.1517   1.1519   1.1945
     1.1949   1.2214   1.2261   1.2270   1.2284   1.2450   1.2451   1.3039
     1.3043   1.3074   1.3077   1.3113   1.3232   1.3405   1.3417   1.3544
     1.3551   1.3823   1.3837   1.4061   1.4070   1.4082   1.4272   1.4523
     1.4930   1.5007   1.5010   1.5013   1.5024   1.5310   1.5498   1.5532
     1.5547   1.5917   1.5922   1.5926   1.5957   1.6020   1.6251   1.6461
     1.6463   1.6625   1.6626   1.6874   1.6904   1.7004   1.7005   1.7109
     1.7117   1.7272   1.7275   1.7448   1.7451   1.7602   1.7683   1.7920
     1.7978   1.8039   1.8118   1.8284   1.8303   1.8306   1.8382   1.8461
     1.8470   1.8573   1.8574   1.8683   1.8716   1.8751   1.8760   1.8768
     1.8983   1.9044   1.9268   1.9391   1.9436   1.9498   1.9547   1.9558
     1.9640   1.9644   1.9645   1.9681   1.9730   1.9755   1.9790   1.9792
     2.0364   2.0377   2.0931   2.0954   2.1088   2.1118   2.1131   2.1161
     2.1343   2.1381   2.1430   2.1435   2.1663   2.1849   2.1868   2.1902
     2.2114   2.2151   2.2454   2.2539   2.2584   2.2785   2.2794   2.2814
     2.2824   2.2842   2.2863   2.2899   2.2916   2.2997   2.3191   2.3246
     2.3652   2.3683   2.3695   2.3725   2.3781   2.3819   2.3881   2.4124
     2.4172   2.4220   2.4361   2.4597   2.4605   2.4795   2.4858   2.4864
     2.4974   2.5003   2.5309   2.5393   2.5443   2.5452   2.5716   2.5725
     2.5941   2.6000   2.6007   2.6189   2.6205   2.6424   2.6432   2.6444
     2.6475   2.6508   2.6631   2.6632   2.6680   2.6747   2.6792   2.6968
     2.7328   2.7385   2.7389   2.7428   2.7895   2.7899   2.8008   2.8033
     2.8329   2.8452   2.8460   2.8519   2.8523   2.8656   2.8690   2.8962
     2.8973   2.8974   2.9067   2.9070   2.9177   2.9200   2.9212   2.9217
     2.9240   2.9305   2.9308   2.9319   2.9345   2.9487   2.9495   2.9640
     2.9647   2.9719   2.9753   2.9755   2.9870   3.0028   3.0077   3.0139
     3.0145   3.0314   3.0618   3.0621   3.0736   3.0947   3.0952   3.2504
     3.2564   3.3628   3.3629   3.4643   3.4648   3.5703   3.7886   3.7918
     4.1694   4.1837   4.2732   4.2736   4.2870   4.5490   4.6571   4.6654
     4.6809   4.6811   4.8124   5.1260   5.1536   5.1547   5.5994   5.6382
     5.6609   5.7153   5.8915   5.9085   5.9103   6.0400   6.0484   6.1311
     6.2056   6.5762   6.6530   6.6558   6.8273   6.9046   6.9734   7.0334
     7.0343   7.2944   7.3452   7.3669   7.5794   7.7694   7.8639   7.9392
     8.4509   8.4576   8.4711   8.5608   8.7268   9.0257   9.1112   9.1397
     9.2099   9.3041   9.3201   9.4541   9.4657   9.6391   9.6485   9.6790
     9.7870   9.8615  10.0108  10.1163  10.1533  10.3405  10.4059  10.4571
    10.5027  10.5868  10.6761  10.7883  10.8284  11.0501  11.1116  11.1629
    11.2456  11.2629  11.4326  11.4585  11.4643  11.5913  11.6186  11.6890
    11.6945  11.7900  11.8361  11.8455  11.9927  12.0871  12.1376  12.1609
    12.2694  12.3531  12.3877  12.4155  12.4781  12.5071  12.5678  12.6047
    12.7030  12.7192  12.8070  12.8908  12.9377  12.9741  13.1460  13.2490
    13.2619  13.2916  13.3686  13.4052  13.4705  13.5075  13.5296  13.6310
    13.6510  13.6800

     the Fermi energy is     4.5921 ev

!    total energy              =  -21903.76907627 Ry
     Harris-Foulkes estimate   =  -21903.76907625 Ry
     estimated scf accuracy    <          4.7E-09 Ry

     The total energy is the sum of the following terms:

     one-electron contribution = -206794.80596118 Ry
     hartree contribution      =  103599.44254413 Ry
     xc contribution           =   -2143.18157709 Ry
     ewald contribution        =   83434.82851036 Ry
     smearing contrib. (-TS)   =      -0.05259247 Ry

     convergence has been achieved in  34 iterations
 
     init_run     :     87.04s CPU     89.95s WALL (       1 calls)
     electrons    :  18195.78s CPU  18490.02s WALL (       1 calls)

     Called by init_run:
     wfcinit      :     76.62s CPU     78.72s WALL (       1 calls)
     potinit      :      5.99s CPU      6.25s WALL (       1 calls)
     hinit0       :      2.48s CPU      2.50s WALL (       1 calls)

     Called by electrons:
     c_bands      :  17151.75s CPU  17389.59s WALL (      34 calls)
     sum_band     :    824.94s CPU    856.17s WALL (      34 calls)
     v_of_rho     :    175.80s CPU    183.96s WALL (      35 calls)
     newd         :     41.26s CPU     58.73s WALL (      35 calls)
     mix_rho      :      4.81s CPU      4.94s WALL (      34 calls)

     Called by c_bands:
     init_us_2    :     31.80s CPU     32.44s WALL (     690 calls)
     cegterg      :  17012.61s CPU  17245.55s WALL (     341 calls)

     Called by sum_band:
     sum_band:bec :      3.00s CPU      3.01s WALL (     340 calls)
     addusdens    :     46.82s CPU     66.43s WALL (      34 calls)

     Called by *egterg:
     h_psi        :   3834.69s CPU   3906.63s WALL (    1885 calls)
     s_psi        :    596.64s CPU    597.51s WALL (    1885 calls)
     g_psi        :     13.23s CPU     13.29s WALL (    1534 calls)
     cdiaghg      :   9741.49s CPU   9814.70s WALL (    1875 calls)

     Called by h_psi:
     h_psi:pot    :   3821.78s CPU   3876.91s WALL (    1885 calls)
     h_psi:calbec :    627.62s CPU    631.25s WALL (    1885 calls)
     vloc_psi     :   2594.27s CPU   2644.62s WALL (    1885 calls)
     add_vuspsi   :    599.85s CPU    601.02s WALL (    1885 calls)

     General routines
     calbec       :    849.02s CPU    853.07s WALL (    2225 calls)
     fft          :    128.19s CPU    129.95s WALL (    2204 calls)
     ffts         :      0.44s CPU      0.45s WALL (      69 calls)
     fftw         :   2777.66s CPU   2834.44s WALL ( 1394986 calls)
     interpolate  :      2.15s CPU      2.18s WALL (      35 calls)
 
     Parallel routines
     fft_scatt_xy :    266.78s CPU    268.43s WALL ( 1397259 calls)
     fft_scatt_yz :   1630.53s CPU   1681.59s WALL ( 1397259 calls)
 
     PWSCF        :     5h 4m CPU        4h 5m WALL

       9h
 
   This run was terminated on:   9:32:31  19Nov2019            

=------------------------------------------------------------------------------=
   JOB DONE.
=------------------------------------------------------------------------------=
