
     Program PWSCF v.6.3MaX starts on 21Nov2019 at 15: 0:44 

     This program is part of the open-source Quantum ESPRESSO suite
     for quantum simulation of materials; please cite
         "P. Giannozzi et al., J. Phys.:Condens. Matter 21 395502 (2009);
         "P. Giannozzi et al., J. Phys.:Condens. Matter 29 465901 (2017);
          URL http://www.quantum-espresso.org", 
     in publications or presentations arising from this work. More details at
     http://www.quantum-espresso.org/quote

     Parallel version (MPI), running on    16 processors

     MPI processes distributed on     2 nodes
     R & G space division:  proc/nbgrp/npool/nimage =      16
     Waiting for input...
     Reading input from standard input

     Current dimensions of program PWSCF are:
     Max number of different atomic species (ntypx) = 10
     Max number of k-points (npk) =  40000
     Max angular momentum in pseudopotentials (lmaxx) =  3
     Message from routine iosys:
     minimal I/O required, wf_collect reset to FALSE

     IMPORTANT: XC functional enforced from input :
     Exchange-correlation      = VDW-DF ( 1  4  4  0 1 0)
     Any further DFT definition will be discarded
     Please, verify this is what you really want


     Subspace diagonalization in iterative solution of the eigenvalue problem:
     one sub-group per band group will be used
     scalapack distributed-memory algorithm (size of sub-group:  2*  2 procs)

 
     Parallelization info
     --------------------
     sticks:   dense  smooth     PW     G-vecs:    dense   smooth      PW
     Min         565     189     51               159513    30701    4383
     Max         566     190     52               159526    30710    4400
     Sum        9055    3037    823              2552337   491295   70261
 


     bravais-lattice index     =            0
     lattice parameter (alat)  =      14.8058  a.u.
     unit-cell volume          =   10282.4791 (a.u.)^3
     number of atoms/cell      =           66
     number of atomic types    =            3
     number of electrons       =      1056.00
     number of Kohn-Sham states=          634
     kinetic-energy cutoff     =      50.0000  Ry
     charge density cutoff     =     600.0000  Ry
     convergence threshold     =      1.0E-08
     mixing beta               =       0.3000
     number of iterations used =            8  plain     mixing
     Exchange-correlation      = VDW-DF ( 1  4  4  0 1 0)

     celldm(1)=  14.805786  celldm(2)=   0.000000  celldm(3)=   0.000000
     celldm(4)=   0.000000  celldm(5)=   0.000000  celldm(6)=   0.000000

     crystal axes: (cart. coord. in units of alat)
               a(1) = (   1.000000   0.000000   0.000000 )  
               a(2) = (   0.500000   0.866025   0.000000 )  
               a(3) = (   0.000000   0.000000   3.658245 )  

     reciprocal axes: (cart. coord. in units 2 pi/alat)
               b(1) = (  1.000000 -0.577350  0.000000 )  
               b(2) = (  0.000000  1.154701  0.000000 )  
               b(3) = (  0.000000  0.000000  0.273355 )  


     PseudoPot. # 1 for Cu read from file:
     /deac/thonhauserGrp/chakrad/calculations/atomandmolecule-qe6.2.1-i2012-C6modif/all_pbe_UPF_v1.5/cu_pbe_v1.2.uspp.F.UPF
     MD5 check sum: 6e991ff952a84172a2a52a1c1e996048
     Pseudo is Ultrasoft + core correction, Zval = 19.0
     Generated by new atomic code, or converted to UPF format
     Using radial grid of  867 points,  6 beta functions with: 
                l(1) =   0
                l(2) =   0
                l(3) =   1
                l(4) =   1
                l(5) =   2
                l(6) =   2
     Q(r) pseudized with  8 coefficients,  rinner =    1.150   1.150   1.150
                                                       1.150   1.150

     PseudoPot. # 2 for C  read from file:
     /deac/thonhauserGrp/chakrad/calculations/atomandmolecule-qe6.2.1-i2012-C6modif/all_pbe_UPF_v1.5/c_pbe_v1.2.uspp.F.UPF
     MD5 check sum: d1aef80898a10debaa0f26306b886e00
     Pseudo is Ultrasoft + core correction, Zval =  4.0
     Generated by new atomic code, or converted to UPF format
     Using radial grid of  721 points,  4 beta functions with: 
                l(1) =   0
                l(2) =   0
                l(3) =   1
                l(4) =   1
     Q(r) pseudized with  8 coefficients,  rinner =    1.100   1.100   1.100


     PseudoPot. # 3 for H  read from file:
     /deac/thonhauserGrp/chakrad/calculations/atomandmolecule-qe6.2.1-i2012-C6modif/all_pbe_UPF_v1.5/h_pbe_v1.4.uspp.F.UPF
     MD5 check sum: 761ae9a214b05c3daf00ab9f6b793d6f
     Pseudo is Ultrasoft, Zval =  1.0
     Generated by new atomic code, or converted to UPF format
     Using radial grid of  615 points,  2 beta functions with: 
                l(1) =   0
                l(2) =   0
     Q(r) pseudized with  8 coefficients,  rinner =    0.700

     vdW kernel table read from file vdW_kernel_table
     MD5 check sum: cc9485f6209b1096fbef62427c856dab

     atomic species   valence    mass     pseudopotential
        Cu            19.00     1.00000     Cu( 1.00)
        C              4.00     1.00000     C ( 1.00)
        H              1.00     1.00000     H ( 1.00)

     No symmetry found



   Cartesian axes

     site n.     atom                  positions (alat units)
         1           Cu  tau(   1) = (   0.1666667   0.0962250   0.2552686  )
         2           Cu  tau(   2) = (   0.5000000   0.0962250   0.2552686  )
         3           Cu  tau(   3) = (   0.8333333   0.0962250   0.2552686  )
         4           Cu  tau(   4) = (   0.3333333   0.3849002   0.2552686  )
         5           Cu  tau(   5) = (   0.6666667   0.3849002   0.2552686  )
         6           Cu  tau(   6) = (   1.0000000   0.3849002   0.2552686  )
         7           Cu  tau(   7) = (   0.5000000   0.6735753   0.2552686  )
         8           Cu  tau(   8) = (   0.8333333   0.6735753   0.2552686  )
         9           Cu  tau(   9) = (   1.1666667   0.6735753   0.2552686  )
        10           Cu  tau(  10) = (   0.0000000   0.1924501   0.5274341  )
        11           Cu  tau(  11) = (   0.3333333   0.1924501   0.5274341  )
        12           Cu  tau(  12) = (   0.6666667   0.1924501   0.5274341  )
        13           Cu  tau(  13) = (   0.1666667   0.4811252   0.5274341  )
        14           Cu  tau(  14) = (   0.5000000   0.4811252   0.5274341  )
        15           Cu  tau(  15) = (   0.8333333   0.4811252   0.5274341  )
        16           Cu  tau(  16) = (   0.3333333   0.7698004   0.5274341  )
        17           Cu  tau(  17) = (   0.6666667   0.7698004   0.5274341  )
        18           Cu  tau(  18) = (   1.0000000   0.7698004   0.5274341  )
        19           Cu  tau(  19) = (   0.0000000   0.0000000   0.7995997  )
        20           Cu  tau(  20) = (   0.3333333   0.0000000   0.7995997  )
        21           Cu  tau(  21) = (   0.6666667   0.0000000   0.7995997  )
        22           Cu  tau(  22) = (   0.1666667   0.2886751   0.7995997  )
        23           Cu  tau(  23) = (   0.5000000   0.2886751   0.7995997  )
        24           Cu  tau(  24) = (   0.8333333   0.2886751   0.7995997  )
        25           Cu  tau(  25) = (   0.3333333   0.5773503   0.7995997  )
        26           Cu  tau(  26) = (   0.6666667   0.5773503   0.7995997  )
        27           Cu  tau(  27) = (   1.0000000   0.5773503   0.7995997  )
        28           Cu  tau(  28) = (   0.1666659   0.0962246   1.0691130  )
        29           Cu  tau(  29) = (   0.5000000   0.0962241   1.0691104  )
        30           Cu  tau(  30) = (   0.8333341   0.0962246   1.0691130  )
        31           Cu  tau(  31) = (   0.3333325   0.3849006   1.0691104  )
        32           Cu  tau(  32) = (   0.6666675   0.3849006   1.0691104  )
        33           Cu  tau(  33) = (   1.0000000   0.3849003   1.0691143  )
        34           Cu  tau(  34) = (   0.5000000   0.6735762   1.0691130  )
        35           Cu  tau(  35) = (   0.8333334   0.6735753   1.0691143  )
        36           Cu  tau(  36) = (   1.1666666   0.6735753   1.0691143  )
        37           Cu  tau(  37) = (   0.0000000   0.1924486   1.3387540  )
        38           Cu  tau(  38) = (   0.3333330   0.1924499   1.3387465  )
        39           Cu  tau(  39) = (   0.6666670   0.1924499   1.3387465  )
        40           Cu  tau(  40) = (   0.1666676   0.4811247   1.3387504  )
        41           Cu  tau(  41) = (   0.5000000   0.4811256   1.3387465  )
        42           Cu  tau(  42) = (   0.8333324   0.4811247   1.3387504  )
        43           Cu  tau(  43) = (   0.3333346   0.7698011   1.3387540  )
        44           Cu  tau(  44) = (   0.6666654   0.7698011   1.3387540  )
        45           Cu  tau(  45) = (   1.0000000   0.7698014   1.3387504  )
        46           Cu  tau(  46) = (   0.0000000   0.0000000   1.6083750  )
        47           Cu  tau(  47) = (   0.3333333   0.0000005   1.6083624  )
        48           Cu  tau(  48) = (   0.6666667   0.0000005   1.6083624  )
        49           Cu  tau(  49) = (   0.1666671   0.2886748   1.6083624  )
        50           Cu  tau(  50) = (   0.5000000   0.2886751   1.6083553  )
        51           Cu  tau(  51) = (   0.8333329   0.2886748   1.6083624  )
        52           Cu  tau(  52) = (   0.3333338   0.5773500   1.6083624  )
        53           Cu  tau(  53) = (   0.6666662   0.5773500   1.6083624  )
        54           Cu  tau(  54) = (   1.0000000   0.5773503   1.6083570  )
        55           C   tau(  55) = (   0.6567407   0.3959883   2.0167477  )
        56           C   tau(  56) = (   0.5046394   0.3028152   2.0167476  )
        57           C   tau(  57) = (   0.3478975   0.3879497   2.0167477  )
        58           C   tau(  58) = (   0.3432593   0.5662630   2.0167477  )
        59           C   tau(  59) = (   0.4953606   0.6594361   2.0167476  )
        60           C   tau(  60) = (   0.6521025   0.5743016   2.0167477  )
        61           H   tau(  61) = (   0.7789959   0.3295665   2.0168259  )
        62           H   tau(  62) = (   0.5082587   0.1637263   2.0168259  )
        63           H   tau(  63) = (   0.2292624   0.3152577   2.0168259  )
        64           H   tau(  64) = (   0.2210041   0.6326847   2.0168259  )
        65           H   tau(  65) = (   0.4917413   0.7985249   2.0168259  )
        66           H   tau(  66) = (   0.7707376   0.6469936   2.0168259  )

     number of k points=    10  gaussian smearing, width (Ry)=  0.0200
                       cart. coord. in units 2pi/alat
        k(    1) = (   0.0000000   0.0000000   0.0000000), wk =   0.1250000
        k(    2) = (   0.0000000   0.2886751   0.0000000), wk =   0.2500000
        k(    3) = (   0.0000000  -0.5773503   0.0000000), wk =   0.1250000
        k(    4) = (   0.2500000  -0.7216878   0.0000000), wk =   0.2500000
        k(    5) = (  -0.2500000   0.1443376   0.0000000), wk =   0.2500000
        k(    6) = (   0.2500000   0.1443376   0.0000000), wk =   0.2500000
        k(    7) = (   0.5000000  -0.2886751   0.0000000), wk =   0.1250000
        k(    8) = (  -0.5000000  -0.2886751   0.0000000), wk =   0.1250000
        k(    9) = (  -0.2500000  -0.7216878   0.0000000), wk =   0.2500000
        k(   10) = (  -0.5000000  -0.5773503   0.0000000), wk =   0.2500000

     Dense  grid:  2552337 G-vectors     FFT dimensions: ( 120, 120, 432)

     Smooth grid:   491295 G-vectors     FFT dimensions: (  72,  72, 243)

     Estimated max dynamical RAM per process >       1.14 GB

     Estimated total dynamical RAM >      18.26 GB

     Initial potential from superposition of free atoms
     Check: negative starting charge=   -0.000780

     starting charge 1001.99960, renormalised to 1056.00000

     negative rho (up, down):  8.215E-04 0.000E+00


     %%%%%%%%%%%%%%%%%%%%%%%%%%%%%%%%%%%%%%%%%%%%%%%%%%%%%%%%%%%%%%%%%%%%%%%%
     %                                                                      %
     % You are using vdW-DF, which was implemented by the Thonhauser group. %
     % Please cite the following two papers that made this development      %
     % possible and the two reviews that describe the various versions:     %
     %                                                                      %
     %   T. Thonhauser et al., PRL 115, 136402 (2015).                      %
     %   T. Thonhauser et al., PRB 76, 125112 (2007).                       %
     %   K. Berland et al., Rep. Prog. Phys. 78, 066501 (2015).             %
     %   D.C. Langreth et al., J. Phys.: Condens. Matter 21, 084203 (2009). %
     %                                                                      %
     %                                                                      %
     % If you are calculating the stress with vdW-DF, please also cite:     %
     %                                                                      %
     %   R. Sabatini et al., J. Phys.: Condens. Matter 24, 424209 (2012).   %
     %                                                                      %
     %%%%%%%%%%%%%%%%%%%%%%%%%%%%%%%%%%%%%%%%%%%%%%%%%%%%%%%%%%%%%%%%%%%%%%%%


     Starting wfcs are  732 randomized atomic wfcs

     total cpu time spent up to now is       75.4 secs

     Self-consistent Calculation

     iteration #  1     ecut=    50.00 Ry     beta= 0.30
     Davidson diagonalization with overlap
     ethr =  1.00E-02,  avg # of iterations =  6.2

     negative rho (up, down):  4.925E-04 0.000E+00

     total cpu time spent up to now is     1177.1 secs

     total energy              =  -18882.81900185 Ry
     Harris-Foulkes estimate   =  -22008.90537897 Ry
     estimated scf accuracy    <    6178.16727553 Ry

     iteration #  2     ecut=    50.00 Ry     beta= 0.30
     Davidson diagonalization with overlap
     c_bands:  4 eigenvalues not converged
     ethr =  1.00E-02,  avg # of iterations = 18.7

     negative rho (up, down):  5.353E-04 0.000E+00

     total cpu time spent up to now is     3405.3 secs

     total energy              =  -19255.05048144 Ry
     Harris-Foulkes estimate   =  -39137.82583788 Ry
     estimated scf accuracy    <  281149.47454797 Ry

     iteration #  3     ecut=    50.00 Ry     beta= 0.30
     Davidson diagonalization with overlap
     ethr =  1.00E-02,  avg # of iterations =  8.0

     negative rho (up, down):  6.116E-04 0.000E+00

     total cpu time spent up to now is     4923.8 secs

     total energy              =  -21667.64314801 Ry
     Harris-Foulkes estimate   =  -23461.65081258 Ry
     estimated scf accuracy    <   47752.07371196 Ry

     iteration #  4     ecut=    50.00 Ry     beta= 0.30
     Davidson diagonalization with overlap
     ethr =  1.00E-02,  avg # of iterations =  8.3

     negative rho (up, down):  8.232E-04 0.000E+00

     total cpu time spent up to now is     5961.5 secs

     total energy              =  -21724.61783514 Ry
     Harris-Foulkes estimate   =  -22131.57961634 Ry
     estimated scf accuracy    <   12023.84368992 Ry

     iteration #  5     ecut=    50.00 Ry     beta= 0.30
     Davidson diagonalization with overlap
     ethr =  1.00E-02,  avg # of iterations =  6.0

     negative rho (up, down):  6.777E-04 0.000E+00

     total cpu time spent up to now is     7230.2 secs

     total energy              =  -21736.27120576 Ry
     Harris-Foulkes estimate   =  -22196.70593325 Ry
     estimated scf accuracy    <    9261.68161668 Ry

     iteration #  6     ecut=    50.00 Ry     beta= 0.30
     Davidson diagonalization with overlap
     ethr =  1.00E-02,  avg # of iterations =  6.0

     negative rho (up, down):  8.266E-04 0.000E+00

     total cpu time spent up to now is     8311.2 secs

     total energy              =  -21897.07859557 Ry
     Harris-Foulkes estimate   =  -21963.44821834 Ry
     estimated scf accuracy    <     799.61225265 Ry

     iteration #  7     ecut=    50.00 Ry     beta= 0.30
     Davidson diagonalization with overlap
     ethr =  1.00E-02,  avg # of iterations =  2.6

     negative rho (up, down):  1.037E-03 0.000E+00

     total cpu time spent up to now is     8603.2 secs

     total energy              =  -21913.55982772 Ry
     Harris-Foulkes estimate   =  -21930.93103136 Ry
     estimated scf accuracy    <     104.13108420 Ry

     iteration #  8     ecut=    50.00 Ry     beta= 0.30
     Davidson diagonalization with overlap
     ethr =  9.86E-03,  avg # of iterations =  1.7

     negative rho (up, down):  1.181E-03 0.000E+00

     total cpu time spent up to now is     8852.0 secs

     total energy              =  -21913.64574825 Ry
     Harris-Foulkes estimate   =  -21918.80691515 Ry
     estimated scf accuracy    <     138.38171583 Ry

     iteration #  9     ecut=    50.00 Ry     beta= 0.30
     Davidson diagonalization with overlap
     ethr =  9.86E-03,  avg # of iterations =  1.5

     negative rho (up, down):  1.304E-03 0.000E+00

     total cpu time spent up to now is     9087.2 secs

     total energy              =  -21912.12848340 Ry
     Harris-Foulkes estimate   =  -21914.42437140 Ry
     estimated scf accuracy    <     101.88946000 Ry

     iteration # 10     ecut=    50.00 Ry     beta= 0.30
     Davidson diagonalization with overlap
     ethr =  9.65E-03,  avg # of iterations =  1.0

     negative rho (up, down):  2.454E-03 0.000E+00

     total cpu time spent up to now is     9318.8 secs

     total energy              =  -21895.94221259 Ry
     Harris-Foulkes estimate   =  -21912.43118164 Ry
     estimated scf accuracy    <     104.85772000 Ry

     iteration # 11     ecut=    50.00 Ry     beta= 0.30
     Davidson diagonalization with overlap
     ethr =  9.65E-03,  avg # of iterations =  3.3

     negative rho (up, down):  3.919E-04 0.000E+00

     total cpu time spent up to now is     9639.0 secs

     total energy              =  -21893.38804768 Ry
     Harris-Foulkes estimate   =  -21914.84626008 Ry
     estimated scf accuracy    <     687.88114955 Ry

     iteration # 12     ecut=    50.00 Ry     beta= 0.30
     Davidson diagonalization with overlap
     ethr =  9.65E-03,  avg # of iterations =  1.9

     negative rho (up, down):  3.949E-04 0.000E+00

     total cpu time spent up to now is     9895.8 secs

     total energy              =  -21901.69947268 Ry
     Harris-Foulkes estimate   =  -21906.45472609 Ry
     estimated scf accuracy    <      55.75914544 Ry

     iteration # 13     ecut=    50.00 Ry     beta= 0.30
     Davidson diagonalization with overlap
     ethr =  5.28E-03,  avg # of iterations =  2.6

     negative rho (up, down):  4.309E-04 0.000E+00

     total cpu time spent up to now is    10173.0 secs

     total energy              =  -21903.77809435 Ry
     Harris-Foulkes estimate   =  -21904.19861209 Ry
     estimated scf accuracy    <       6.74110319 Ry

     iteration # 14     ecut=    50.00 Ry     beta= 0.30
     Davidson diagonalization with overlap
     ethr =  6.38E-04,  avg # of iterations =  5.2

     negative rho (up, down):  4.616E-04 0.000E+00

     total cpu time spent up to now is    10582.7 secs

     total energy              =  -21904.02344350 Ry
     Harris-Foulkes estimate   =  -21904.22491134 Ry
     estimated scf accuracy    <       3.87852902 Ry

     iteration # 15     ecut=    50.00 Ry     beta= 0.30
     Davidson diagonalization with overlap
     ethr =  3.67E-04,  avg # of iterations =  2.7

     negative rho (up, down):  5.215E-04 0.000E+00

     total cpu time spent up to now is    10868.7 secs

     total energy              =  -21903.89339102 Ry
     Harris-Foulkes estimate   =  -21904.18977941 Ry
     estimated scf accuracy    <       4.74450714 Ry

     iteration # 16     ecut=    50.00 Ry     beta= 0.30
     Davidson diagonalization with overlap
     ethr =  3.67E-04,  avg # of iterations =  5.0

     negative rho (up, down):  5.931E-04 0.000E+00

     total cpu time spent up to now is    11218.7 secs

     total energy              =  -21903.86708986 Ry
     Harris-Foulkes estimate   =  -21904.02155653 Ry
     estimated scf accuracy    <       4.28806378 Ry

     iteration # 17     ecut=    50.00 Ry     beta= 0.30
     Davidson diagonalization with overlap
     ethr =  3.67E-04,  avg # of iterations =  1.0

     negative rho (up, down):  6.802E-04 0.000E+00

     total cpu time spent up to now is    11452.8 secs

     total energy              =  -21903.84886767 Ry
     Harris-Foulkes estimate   =  -21903.91484013 Ry
     estimated scf accuracy    <       3.50172142 Ry

     iteration # 18     ecut=    50.00 Ry     beta= 0.30
     Davidson diagonalization with overlap
     ethr =  3.32E-04,  avg # of iterations =  1.0

     negative rho (up, down):  9.046E-04 0.000E+00

     total cpu time spent up to now is    11685.7 secs

     total energy              =  -21903.78851217 Ry
     Harris-Foulkes estimate   =  -21903.87034975 Ry
     estimated scf accuracy    <       1.29610376 Ry

     iteration # 19     ecut=    50.00 Ry     beta= 0.30
     Davidson diagonalization with overlap
     ethr =  1.23E-04,  avg # of iterations =  6.1

     negative rho (up, down):  9.861E-04 0.000E+00

     total cpu time spent up to now is    12083.1 secs

     total energy              =  -21903.79127007 Ry
     Harris-Foulkes estimate   =  -21903.80540616 Ry
     estimated scf accuracy    <       0.88984000 Ry

     iteration # 20     ecut=    50.00 Ry     beta= 0.30
     Davidson diagonalization with overlap
     ethr =  8.43E-05,  avg # of iterations =  2.8

     negative rho (up, down):  5.295E-03 0.000E+00

     total cpu time spent up to now is    12366.5 secs

     total energy              =  -21903.73160776 Ry
     Harris-Foulkes estimate   =  -21903.79487926 Ry
     estimated scf accuracy    <       0.60883519 Ry

     iteration # 21     ecut=    50.00 Ry     beta= 0.30
     Davidson diagonalization with overlap
     ethr =  5.77E-05,  avg # of iterations =  7.5

     negative rho (up, down):  1.635E-03 0.000E+00

     total cpu time spent up to now is    12855.7 secs

     total energy              =  -21903.75549690 Ry
     Harris-Foulkes estimate   =  -21903.77395038 Ry
     estimated scf accuracy    <       0.24041945 Ry

     iteration # 22     ecut=    50.00 Ry     beta= 0.30
     Davidson diagonalization with overlap
     ethr =  2.28E-05,  avg # of iterations =  3.0

     negative rho (up, down):  1.685E-03 0.000E+00

     total cpu time spent up to now is    13149.8 secs

     total energy              =  -21903.76329050 Ry
     Harris-Foulkes estimate   =  -21903.76462630 Ry
     estimated scf accuracy    <       0.00955257 Ry

     iteration # 23     ecut=    50.00 Ry     beta= 0.30
     Davidson diagonalization with overlap
     ethr =  9.05E-07,  avg # of iterations =  6.8

     negative rho (up, down):  1.803E-03 0.000E+00

     total cpu time spent up to now is    13611.4 secs

     total energy              =  -21903.76376846 Ry
     Harris-Foulkes estimate   =  -21903.76412921 Ry
     estimated scf accuracy    <       0.00144630 Ry

     iteration # 24     ecut=    50.00 Ry     beta= 0.30
     Davidson diagonalization with overlap
     ethr =  1.37E-07,  avg # of iterations =  3.7

     negative rho (up, down):  1.935E-03 0.000E+00

     total cpu time spent up to now is    13937.2 secs

     total energy              =  -21903.76392318 Ry
     Harris-Foulkes estimate   =  -21903.76395759 Ry
     estimated scf accuracy    <       0.00049281 Ry

     iteration # 25     ecut=    50.00 Ry     beta= 0.30
     Davidson diagonalization with overlap
     ethr =  4.67E-08,  avg # of iterations =  5.8

     negative rho (up, down):  2.172E-03 0.000E+00

     total cpu time spent up to now is    14325.0 secs

     total energy              =  -21903.76397790 Ry
     Harris-Foulkes estimate   =  -21903.76397881 Ry
     estimated scf accuracy    <       0.00031367 Ry

     iteration # 26     ecut=    50.00 Ry     beta= 0.30
     Davidson diagonalization with overlap
     ethr =  2.97E-08,  avg # of iterations =  6.7

     negative rho (up, down):  2.296E-03 0.000E+00

     total cpu time spent up to now is    14731.8 secs

     total energy              =  -21903.76401101 Ry
     Harris-Foulkes estimate   =  -21903.76401003 Ry
     estimated scf accuracy    <       0.00006669 Ry

     iteration # 27     ecut=    50.00 Ry     beta= 0.30
     Davidson diagonalization with overlap
     ethr =  6.32E-09,  avg # of iterations =  2.0

     negative rho (up, down):  2.343E-03 0.000E+00

     total cpu time spent up to now is    14988.0 secs

     total energy              =  -21903.76401692 Ry
     Harris-Foulkes estimate   =  -21903.76401862 Ry
     estimated scf accuracy    <       0.00002097 Ry

     iteration # 28     ecut=    50.00 Ry     beta= 0.30
     Davidson diagonalization with overlap
     ethr =  1.99E-09,  avg # of iterations =  2.5

     negative rho (up, down):  2.432E-03 0.000E+00

     total cpu time spent up to now is    15253.3 secs

     total energy              =  -21903.76402066 Ry
     Harris-Foulkes estimate   =  -21903.76402090 Ry
     estimated scf accuracy    <       0.00003168 Ry

     iteration # 29     ecut=    50.00 Ry     beta= 0.30
     Davidson diagonalization with overlap
     ethr =  1.99E-09,  avg # of iterations =  2.7

     negative rho (up, down):  2.476E-03 0.000E+00

     total cpu time spent up to now is    15528.2 secs

     total energy              =  -21903.76402242 Ry
     Harris-Foulkes estimate   =  -21903.76402252 Ry
     estimated scf accuracy    <       0.00001117 Ry

     iteration # 30     ecut=    50.00 Ry     beta= 0.30
     Davidson diagonalization with overlap
     ethr =  1.06E-09,  avg # of iterations =  3.0

     negative rho (up, down):  2.513E-03 0.000E+00

     total cpu time spent up to now is    15809.9 secs

     total energy              =  -21903.76402282 Ry
     Harris-Foulkes estimate   =  -21903.76402302 Ry
     estimated scf accuracy    <       0.00000179 Ry

     iteration # 31     ecut=    50.00 Ry     beta= 0.30
     Davidson diagonalization with overlap
     ethr =  1.69E-10,  avg # of iterations =  2.3

     negative rho (up, down):  2.534E-03 0.000E+00

     total cpu time spent up to now is    16063.2 secs

     total energy              =  -21903.76402287 Ry
     Harris-Foulkes estimate   =  -21903.76402307 Ry
     estimated scf accuracy    <       0.00000104 Ry

     iteration # 32     ecut=    50.00 Ry     beta= 0.30
     Davidson diagonalization with overlap
     ethr =  9.85E-11,  avg # of iterations =  2.3

     negative rho (up, down):  2.535E-03 0.000E+00

     total cpu time spent up to now is    16328.7 secs

     total energy              =  -21903.76402292 Ry
     Harris-Foulkes estimate   =  -21903.76402298 Ry
     estimated scf accuracy    <       0.00000060 Ry

     iteration # 33     ecut=    50.00 Ry     beta= 0.30
     Davidson diagonalization with overlap
     ethr =  5.70E-11,  avg # of iterations =  1.1

     negative rho (up, down):  2.545E-03 0.000E+00

     total cpu time spent up to now is    16560.0 secs

     total energy              =  -21903.76402288 Ry
     Harris-Foulkes estimate   =  -21903.76402298 Ry
     estimated scf accuracy    <       0.00000045 Ry

     iteration # 34     ecut=    50.00 Ry     beta= 0.30
     Davidson diagonalization with overlap
     ethr =  4.30E-11,  avg # of iterations =  2.0

     negative rho (up, down):  2.547E-03 0.000E+00

     total cpu time spent up to now is    16837.2 secs

     total energy              =  -21903.76402288 Ry
     Harris-Foulkes estimate   =  -21903.76402291 Ry
     estimated scf accuracy    <       0.00000014 Ry

     iteration # 35     ecut=    50.00 Ry     beta= 0.30
     Davidson diagonalization with overlap
     ethr =  1.31E-11,  avg # of iterations =  1.4

     negative rho (up, down):  2.549E-03 0.000E+00

     total cpu time spent up to now is    17083.6 secs

     total energy              =  -21903.76402287 Ry
     Harris-Foulkes estimate   =  -21903.76402289 Ry
     estimated scf accuracy    <       0.00000003 Ry

     iteration # 36     ecut=    50.00 Ry     beta= 0.30
     Davidson diagonalization with overlap
     ethr =  2.58E-12,  avg # of iterations =  2.0

     negative rho (up, down):  2.549E-03 0.000E+00

     total cpu time spent up to now is    17344.9 secs

     End of self-consistent calculation

          k = 0.0000 0.0000 0.0000 ( 61453 PWs)   bands (ev):

  -107.7819-107.7784-107.7737-107.7737-107.7733-107.7728-107.7728-107.7728
  -107.7714-107.7701-107.7701-107.7697-107.7697-107.7689-107.7689-107.7687
  -107.7683-107.7682-107.7647-107.7647-107.7644-107.7630-107.7630-107.7621
  -107.7601-107.7601-107.7591-107.7581-107.7556-107.7541-107.7541-107.7541
  -107.7541-107.7529-107.7518-107.7502-107.5658-107.5627-107.5627-107.5582
  -107.5559-107.5558-107.5492-107.5470-107.5470-107.5198-107.5149-107.5149
  -107.5149-107.5145-107.5144-107.5144-107.5121-107.5121 -65.2345 -65.2228
   -65.2209 -65.2209 -65.2203 -65.2203 -65.2193 -65.2140 -65.2137 -65.2137
   -65.2127 -65.2127 -65.2119 -65.2119 -65.2118 -65.2092 -65.2089 -65.2089
   -65.2085 -65.2071 -65.2024 -65.2024 -65.2014 -65.2002 -65.1997 -65.1997
   -65.1985 -65.1984 -65.1984 -65.1978 -65.1978 -65.1967 -65.1967 -65.1965
   -65.1946 -65.1943 -65.1943 -65.1938 -65.1893 -65.1893 -65.1891 -65.1881
   -65.1879 -65.1879 -65.1874 -65.1874 -65.1841 -65.1837 -65.1837 -65.1813
   -65.1810 -65.1806 -65.1806 -65.1805 -65.1805 -65.1800 -65.1758 -65.1736
   -65.1736 -65.1727 -65.1727 -65.1721 -65.1718 -65.1718 -65.1710 -65.1709
   -65.1709 -65.1708 -65.1694 -65.1688 -65.1688 -65.1685 -65.1685 -65.1659
   -65.1659 -65.1628 -65.1626 -65.1626 -65.1626 -65.1622 -65.1622 -65.1613
   -65.1613 -65.1610 -65.1603 -65.1603 -65.1602 -65.1579 -65.1561 -65.1561
   -65.1559 -65.1550 -65.1550 -65.1549 -65.1543 -65.1543 -65.1489 -65.1489
   -65.1480 -65.1480 -65.1478 -65.1471 -65.1468 -65.1468 -65.1434 -65.1433
   -65.1366 -65.1366 -65.0175 -65.0175 -65.0171 -65.0108 -65.0106 -65.0105
   -65.0105 -65.0072 -65.0071 -65.0019 -64.9811 -64.9773 -64.9773 -64.9751
   -64.9751 -64.9744 -64.9741 -64.9741 -64.9741 -64.9738 -64.9738 -64.9718
   -64.9715 -64.9715 -64.9713 -64.9709 -64.9621 -64.9621 -64.9462 -64.9434
   -64.9434 -64.9389 -64.9389 -64.9387 -64.9387 -64.9387 -64.9382 -64.9367
   -64.9345 -64.9345 -64.9267 -64.9265 -64.9265 -64.9246 -64.9246 -64.8917
   -64.8872 -64.8872 -64.8871 -64.8866 -64.8866 -64.8866 -64.8844 -64.8844
   -12.8507 -10.0982 -10.0980  -6.4980  -6.4975  -4.5707  -4.0456  -3.4284
    -2.9643  -2.5888  -2.4859  -1.9317  -1.9316  -1.3909  -1.0832  -1.0801
    -1.0801  -1.0797  -1.0797  -1.0797  -0.8385  -0.6779  -0.6779  -0.6768
    -0.6768  -0.6765  -0.6612  -0.4231  -0.1802  -0.1802  -0.1800  -0.1784
    -0.1784  -0.1771  -0.1596   0.0058   0.0060   0.2690   0.2690   0.2737
     0.2753   0.2753   0.2797   0.6185   0.6185   0.6235   0.6239   0.6239
     0.6273   0.7495   0.7495   0.7505   0.7510   0.7510   0.7521   0.7987
     0.7987   0.7998   0.7998   0.8000   0.8010   0.8297   0.8297   0.8436
     0.8436   0.8526   0.8527   0.9485   0.9486   0.9584   0.9584   0.9722
     0.9722   0.9744   0.9762   0.9762   0.9777   0.9885   0.9885   0.9896
     0.9897   1.0320   1.0320   1.0820   1.0820   1.1787   1.1787   1.1848
     1.1848   1.1878   1.1883   1.1883   1.1904   1.2265   1.2265   1.4118
     1.4118   1.4245   1.4245   1.4252   1.4270   1.5575   1.5575   1.5647
     1.5647   1.5681   1.5681   1.5794   1.5794   1.5802   1.5813   1.6197
     1.6199   1.6212   1.6390   1.6779   1.6779   1.6930   1.6930   1.6938
     1.6939   1.7055   1.7055   1.7336   1.7336   1.7411   1.7412   1.7618
     1.7701   1.7701   1.7783   1.7783   1.7784   1.7803   1.8129   1.8130
     1.8198   1.8198   1.8309   1.8313   1.8313   1.8319   1.8517   1.8517
     1.8518   1.8528   1.8531   1.8531   1.8539   1.8539   1.8589   1.8589
     1.8721   1.9574   1.9574   1.9737   1.9767   1.9773   1.9773   1.9805
     1.9822   1.9984   1.9984   2.0108   2.0108   2.0303   2.0305   2.0435
     2.0435   2.0524   2.0524   2.0527   2.0529   2.0529   2.0536   2.0543
     2.0543   2.2382   2.2382   2.2388   2.2438   2.2842   2.2842   2.3093
     2.3096   2.3096   2.3109   2.3110   2.3110   2.3651   2.3652   2.3686
     2.3706   2.3892   2.3892   2.3920   2.3920   2.4145   2.4145   2.4148
     2.4149   2.4660   2.4808   2.4808   2.5088   2.5088   2.5093   2.5093
     2.5112   2.5179   2.5289   2.5289   2.5381   2.5381   2.5398   2.5410
     2.5410   2.5415   2.5416   2.5416   2.5491   2.5491   2.6149   2.6149
     2.6808   2.6810   2.6810   2.6818   2.6820   2.6820   2.7356   2.7366
     2.7366   2.7385   2.7414   2.7415   2.7415   2.7421   2.7423   2.7423
     2.7475   2.7475   2.8005   2.8005   2.8085   2.8091   2.8091   2.8100
     2.8100   2.8102   2.8210   2.8211   2.8211   2.8217   2.8219   2.8219
     2.8440   2.8440   2.8440   2.8445   2.8447   2.8447   2.8663   2.8663
     2.8881   2.8881   2.9034   2.9058   2.9059   2.9076   2.9076   2.9087
     2.9184   2.9186   2.9387   2.9390   2.9390   2.9397   2.9397   2.9401
     2.9656   2.9656   2.9673   2.9673   2.9739   2.9739   2.9928   2.9931
     3.0035   3.0037   3.0037   3.0052   3.0052   3.0056   3.0288   3.0288
     3.0296   3.0342   3.0342   3.0389   3.0800   3.0800   3.0836   3.0839
     3.0839   3.0852   3.0853   3.0853   3.9177   4.0054   4.0054   4.0098
     4.0477   4.0657   4.0657   4.5332   5.4213   5.4213   5.4384   5.4744
     5.5102   5.5102   6.9235   6.9237   7.0209   7.1977   7.3085   7.3285
     7.3285   7.4397   7.4398   7.8793   7.8793   7.8797   7.8800   7.8961
     7.8961   8.1852   8.2706   8.2706   8.2935   8.2935   8.4594   8.6789
     8.6823   8.7995   8.8884   8.8885   8.9366   8.9378   9.0181   9.1138
     9.1138   9.3225   9.4557   9.5621   9.5621   9.5713   9.5713   9.8417
     9.8418   9.8848   9.9444   9.9472  10.5564  10.5881  10.6937  10.6937
    10.7397  10.7397  10.8840  10.8840  10.9363  10.9363  10.9963  11.0328
    11.0328  11.1365  11.2169  11.3424  11.3424  11.3874  11.3874  11.4111
    11.5173  11.6299  11.6299  11.7911  11.8400  11.8400  11.8787  11.8787
    11.9336  11.9537  11.9537  11.9759  11.9759  12.0372  12.1387  12.2320
    12.2320  12.2633  12.3091  12.3671  12.3671  12.5045  12.5045  12.7595
    12.8740  12.8813  12.8814  13.0209  13.0209  13.0422  13.0488  13.0710
    13.1548  13.1658

          k = 0.0000 0.2887 0.0000 ( 61417 PWs)   bands (ev):

  -107.7817-107.7781-107.7751-107.7742-107.7734-107.7728-107.7721-107.7718
  -107.7711-107.7704-107.7704-107.7696-107.7696-107.7692-107.7690-107.7683
  -107.7683-107.7679-107.7656-107.7648-107.7643-107.7628-107.7628-107.7618
  -107.7602-107.7601-107.7587-107.7581-107.7561-107.7548-107.7547-107.7536
  -107.7533-107.7526-107.7520-107.7502-107.5656-107.5628-107.5627-107.5583
  -107.5559-107.5557-107.5493-107.5470-107.5469-107.5194-107.5164-107.5154
  -107.5153-107.5139-107.5138-107.5134-107.5123-107.5123 -65.2331 -65.2245
   -65.2233 -65.2222 -65.2214 -65.2210 -65.2203 -65.2198 -65.2174 -65.2172
   -65.2160 -65.2159 -65.2145 -65.2142 -65.2099 -65.2091 -65.2084 -65.2068
   -65.2058 -65.2051 -65.2045 -65.2044 -65.2042 -65.2037 -65.2021 -65.2021
   -65.2014 -65.2006 -65.1971 -65.1970 -65.1947 -65.1940 -65.1940 -65.1929
   -65.1927 -65.1919 -65.1914 -65.1908 -65.1891 -65.1890 -65.1869 -65.1868
   -65.1844 -65.1834 -65.1832 -65.1828 -65.1821 -65.1821 -65.1809 -65.1803
   -65.1794 -65.1788 -65.1780 -65.1774 -65.1771 -65.1763 -65.1757 -65.1754
   -65.1745 -65.1737 -65.1732 -65.1731 -65.1727 -65.1723 -65.1722 -65.1702
   -65.1697 -65.1682 -65.1680 -65.1672 -65.1670 -65.1661 -65.1657 -65.1655
   -65.1651 -65.1645 -65.1645 -65.1638 -65.1636 -65.1634 -65.1634 -65.1621
   -65.1619 -65.1607 -65.1603 -65.1594 -65.1587 -65.1587 -65.1581 -65.1581
   -65.1577 -65.1574 -65.1556 -65.1547 -65.1546 -65.1522 -65.1515 -65.1513
   -65.1513 -65.1501 -65.1496 -65.1477 -65.1476 -65.1469 -65.1445 -65.1437
   -65.1406 -65.1375 -65.0251 -65.0211 -65.0206 -65.0159 -65.0139 -65.0054
   -65.0047 -64.9997 -64.9992 -64.9937 -64.9856 -64.9835 -64.9801 -64.9800
   -64.9798 -64.9789 -64.9787 -64.9786 -64.9762 -64.9745 -64.9714 -64.9669
   -64.9667 -64.9658 -64.9630 -64.9612 -64.9610 -64.9582 -64.9461 -64.9435
   -64.9434 -64.9428 -64.9426 -64.9416 -64.9387 -64.9385 -64.9368 -64.9346
   -64.9345 -64.9344 -64.9308 -64.9276 -64.9267 -64.9246 -64.9245 -64.8913
   -64.8885 -64.8875 -64.8874 -64.8861 -64.8861 -64.8856 -64.8846 -64.8846
   -12.8499 -10.1017 -10.0987  -6.5007  -6.4934  -4.5440  -3.8323  -3.2197
    -2.9368  -2.5924  -2.2873  -2.2298  -1.9805  -1.9394  -1.6836  -1.5189
    -1.5178  -1.2177  -1.0416  -1.0358  -0.9091  -0.7570  -0.4617  -0.4613
    -0.3755  -0.3691  -0.2772  -0.2504  -0.1771  -0.1761  -0.0444  -0.0403
    -0.0046   0.0010   0.0048   0.0946   0.0985   0.0988   0.2700   0.2788
     0.3035   0.3690   0.3695   0.5505   0.5590   0.5906   0.5907   0.6118
     0.6267   0.6267   0.6479   0.6487   0.6918   0.6967   0.6981   0.6994
     0.7104   0.7109   0.7522   0.7522   0.7876   0.7877   0.8174   0.8176
     0.8209   0.8683   0.8699   0.8837   0.8837   0.9043   0.9050   0.9172
     0.9173   0.9468   0.9474   0.9930   1.0605   1.0605   1.0631   1.0899
     1.0900   1.1018   1.1035   1.1362   1.1368   1.1744   1.1765   1.1766
     1.2426   1.2426   1.2585   1.2658   1.2863   1.2872   1.3318   1.3330
     1.3463   1.3676   1.3696   1.3734   1.3992   1.4442   1.4466   1.4602
     1.4614   1.4718   1.4958   1.5071   1.5224   1.5420   1.5432   1.5528
     1.5780   1.5785   1.6058   1.6442   1.6650   1.6691   1.6725   1.6757
     1.6820   1.6870   1.6997   1.7197   1.7315   1.7386   1.7407   1.7542
     1.7553   1.7590   1.7738   1.7814   1.7849   1.7856   1.7982   1.8036
     1.8156   1.8239   1.8242   1.8324   1.8368   1.8511   1.8516   1.8563
     1.8585   1.8615   1.8675   1.8725   1.8865   1.8889   1.8980   1.9071
     1.9123   1.9211   1.9224   1.9402   1.9452   1.9538   1.9542   1.9734
     1.9790   1.9810   1.9947   2.0023   2.0026   2.0051   2.0141   2.0195
     2.0333   2.0423   2.0705   2.0726   2.0880   2.0885   2.0915   2.0929
     2.1020   2.1152   2.1175   2.1350   2.1441   2.1455   2.1550   2.1710
     2.1932   2.1981   2.2275   2.2366   2.2411   2.2418   2.2512   2.2529
     2.3021   2.3206   2.3454   2.3463   2.3526   2.3540   2.3677   2.3685
     2.3974   2.3987   2.4096   2.4104   2.4136   2.4164   2.4419   2.4431
     2.4771   2.4820   2.4865   2.4875   2.4949   2.5198   2.5230   2.5261
     2.5266   2.5304   2.5603   2.5725   2.5764   2.5804   2.5821   2.5981
     2.6031   2.6037   2.6215   2.6235   2.6254   2.6256   2.6360   2.6399
     2.6590   2.6674   2.7099   2.7157   2.7190   2.7458   2.7482   2.7578
     2.7608   2.7619   2.7624   2.7661   2.7826   2.7840   2.7847   2.7977
     2.8013   2.8027   2.8063   2.8207   2.8441   2.8529   2.8530   2.8555
     2.8661   2.8675   2.8844   2.8868   2.8939   2.8956   2.9419   2.9422
     2.9430   2.9454   2.9455   2.9557   2.9644   2.9656   2.9684   2.9735
     2.9762   2.9765   2.9824   2.9827   2.9875   2.9921   3.0001   3.0017
     3.0196   3.0307   3.0309   3.0319   3.0339   3.0380   3.0390   3.0396
     3.0619   3.0702   3.0817   3.0834   3.0870   3.0878   3.1008   3.1027
     3.1603   3.1927   3.2412   3.3207   3.3468   3.3473   3.4323   3.5071
     3.5074   3.7603   3.8075   3.8125   3.8178   3.8467   4.1233   4.3442
     4.5160   4.7823   4.7870   5.0121   5.0995   5.1127   5.1407   5.8753
     5.8759   6.0945   6.2101   6.2497   6.2708   6.2715   6.5006   6.7243
     6.8143   6.9113   6.9486   7.1555   7.1914   7.3492   7.5027   7.7719
     7.8036   7.8172   7.9840   8.0671   8.2626   8.2773   8.2875   8.4152
     8.4401   8.7376   8.7448   8.7506   8.8838   8.9627   9.2895   9.2937
     9.3162   9.4386   9.5707   9.6823   9.8026   9.8290   9.9160   9.9659
    10.0221  10.0364  10.0757  10.1604  10.2645  10.4226  10.4445  10.4560
    10.5402  10.5645  10.6164  10.6869  10.7289  10.7899  10.8019  10.8963
    10.9401  10.9742  10.9909  11.0276  11.1019  11.2612  11.4540  11.4665
    11.5164  11.5220  11.5920  11.6298  11.7180  11.7763  11.9276  11.9521
    12.0615  12.1789  12.2385  12.3214  12.3675  12.4182  12.4834  12.4947
    12.5488  12.5987  12.6720  12.7212  12.8249  12.8399  12.8823  12.8886
    12.9705  13.0447  13.1332  13.1504  13.2032  13.2516  13.2854  13.3982
    13.4090  13.4326

          k = 0.0000-0.5774 0.0000 ( 61408 PWs)   bands (ev):

  -107.7815-107.7776-107.7763-107.7745-107.7736-107.7724-107.7717-107.7713
  -107.7710-107.7705-107.7702-107.7701-107.7699-107.7693-107.7687-107.7684
  -107.7678-107.7675-107.7665-107.7649-107.7644-107.7626-107.7625-107.7617
  -107.7603-107.7601-107.7582-107.7581-107.7569-107.7551-107.7549-107.7533
  -107.7526-107.7525-107.7523-107.7502-107.5655-107.5629-107.5627-107.5584
  -107.5558-107.5556-107.5494-107.5470-107.5469-107.5183-107.5180-107.5156
  -107.5155-107.5133-107.5132-107.5130-107.5127-107.5127 -65.2298 -65.2286
   -65.2263 -65.2250 -65.2219 -65.2212 -65.2202 -65.2199 -65.2188 -65.2186
   -65.2182 -65.2180 -65.2177 -65.2168 -65.2138 -65.2085 -65.2071 -65.2071
   -65.2067 -65.2064 -65.2059 -65.2057 -65.2052 -65.2051 -65.2028 -65.2024
   -65.2019 -65.2011 -65.1957 -65.1949 -65.1942 -65.1939 -65.1934 -65.1927
   -65.1917 -65.1884 -65.1881 -65.1864 -65.1848 -65.1846 -65.1845 -65.1841
   -65.1837 -65.1825 -65.1817 -65.1816 -65.1811 -65.1801 -65.1800 -65.1792
   -65.1773 -65.1772 -65.1768 -65.1767 -65.1765 -65.1761 -65.1750 -65.1743
   -65.1724 -65.1715 -65.1711 -65.1707 -65.1703 -65.1699 -65.1698 -65.1698
   -65.1697 -65.1695 -65.1691 -65.1680 -65.1668 -65.1667 -65.1662 -65.1656
   -65.1653 -65.1651 -65.1637 -65.1630 -65.1626 -65.1624 -65.1623 -65.1617
   -65.1612 -65.1611 -65.1599 -65.1596 -65.1595 -65.1590 -65.1589 -65.1587
   -65.1583 -65.1579 -65.1577 -65.1553 -65.1552 -65.1548 -65.1546 -65.1540
   -65.1519 -65.1516 -65.1510 -65.1509 -65.1491 -65.1485 -65.1477 -65.1470
   -65.1406 -65.1397 -65.0290 -65.0233 -65.0227 -65.0183 -65.0162 -65.0019
   -65.0010 -64.9926 -64.9900 -64.9898 -64.9881 -64.9868 -64.9834 -64.9821
   -64.9819 -64.9818 -64.9816 -64.9796 -64.9783 -64.9753 -64.9720 -64.9698
   -64.9642 -64.9633 -64.9631 -64.9509 -64.9508 -64.9508 -64.9505 -64.9460
   -64.9436 -64.9434 -64.9427 -64.9425 -64.9423 -64.9397 -64.9395 -64.9369
   -64.9345 -64.9344 -64.9307 -64.9304 -64.9268 -64.9246 -64.9245 -64.8903
   -64.8899 -64.8877 -64.8876 -64.8855 -64.8855 -64.8853 -64.8850 -64.8849
   -12.8491 -10.1052 -10.0995  -6.5040  -6.4887  -4.5165  -3.2070  -3.2067
    -2.9089  -2.6137  -2.6117  -2.5962  -2.0351  -1.9471  -1.7244  -1.6956
    -1.6741  -1.6732  -1.1740  -1.1654  -0.9079  -0.6423  -0.5477  -0.4467
    -0.4246  -0.0768  -0.0610   0.0050   0.1158   0.1229   0.1426   0.1426
     0.1430   0.1440   0.1454   0.2296   0.2961   0.3068   0.3102   0.3189
     0.3218   0.3407   0.3408   0.3412   0.3414   0.3954   0.3957   0.3963
     0.3963   0.5242   0.5589   0.5590   0.5607   0.5607   0.5926   0.6398
     0.7388   0.7389   0.7393   0.7396   0.7492   0.7714   0.7769   0.7891
     0.7893   0.7914   0.7916   0.9122   0.9124   0.9131   0.9132   0.9344
     0.9363   1.0197   1.0301   1.0305   1.0332   1.0334   1.0731   1.0733
     1.1164   1.1167   1.1811   1.1817   1.1845   1.1848   1.2468   1.2473
     1.2776   1.2796   1.2917   1.2917   1.2960   1.2970   1.3175   1.3178
     1.3370   1.3536   1.3986   1.4164   1.4188   1.4439   1.4462   1.4547
     1.4644   1.4722   1.4735   1.4749   1.4749   1.5239   1.5322   1.5331
     1.5332   1.5348   1.5357   1.5798   1.5863   1.5919   1.6066   1.6106
     1.6111   1.6175   1.6175   1.6181   1.6284   1.6719   1.6963   1.7080
     1.7093   1.7098   1.7229   1.7528   1.7572   1.7591   1.7595   1.7602
     1.7623   1.7735   1.8042   1.8231   1.8246   1.8296   1.8347   1.8418
     1.8435   1.8680   1.8757   1.8769   1.8802   1.9011   1.9021   1.9059
     1.9064   1.9085   1.9106   1.9303   1.9312   1.9403   1.9588   1.9618
     1.9642   1.9861   1.9971   1.9980   2.0547   2.0559   2.0646   2.0657
     2.0667   2.0671   2.0712   2.0724   2.0754   2.0859   2.0866   2.0866
     2.0987   2.1095   2.1103   2.1167   2.1168   2.1220   2.1247   2.1904
     2.1969   2.1981   2.2072   2.2755   2.2768   2.2780   2.2784   2.2797
     2.2810   2.2821   2.2933   2.2942   2.2964   2.3102   2.3212   2.3393
     2.3549   2.3552   2.3566   2.3621   2.3774   2.3795   2.3796   2.3806
     2.3815   2.3907   2.4038   2.4051   2.4080   2.4169   2.4173   2.4988
     2.5128   2.5353   2.5362   2.5628   2.5631   2.5643   2.5652   2.5948
     2.5948   2.6013   2.6154   2.6328   2.6356   2.6394   2.6409   2.6528
     2.6609   2.6765   2.6772   2.6779   2.6783   2.6850   2.6910   2.7088
     2.7104   2.7130   2.7191   2.7652   2.7653   2.7676   2.7682   2.7790
     2.7797   2.8002   2.8021   2.8292   2.8305   2.8392   2.8418   2.8643
     2.8644   2.8864   2.8912   2.8986   2.9105   2.9479   2.9495   2.9671
     2.9695   2.9705   2.9719   2.9909   3.0015   3.0015   3.0043   3.0050
     3.0073   3.0101   3.0283   3.0309   3.0312   3.0313   3.0319   3.0478
     3.0489   3.0505   3.0639   3.0649   3.0798   3.0819   3.0948   3.0950
     3.0960   3.1009   3.1061   3.1234   3.1356   3.1481   3.1485   3.1501
     3.1503   3.2381   3.2724   3.7779   3.8107   3.8169   3.8310   4.3111
     4.3596   4.3600   4.3603   4.3606   4.6252   4.6274   4.6288   4.6294
     4.9602   4.9772   5.0123   5.1066   5.1652   5.1704   5.1870   5.1877
     5.1959   5.4684   5.8056   6.0595   6.0796   6.1119   6.1242   6.1627
     6.1663   6.1884   6.2251   6.6062   6.7008   7.0421   7.1443   7.4696
     7.4744   7.4777   7.6649   7.8802   7.9790   8.2288   8.3391   8.4292
     8.5968   8.6043   8.6059   8.6394   8.9149   8.9543   8.9756   9.1999
     9.2472   9.2522   9.2680   9.2683   9.4509   9.6100   9.6271   9.7731
     9.8260   9.9130   9.9221   9.9298   9.9576  10.2860  10.2976  10.3845
    10.4259  10.4529  10.5363  10.5525  10.5769  10.8095  10.8569  11.0265
    11.0413  11.1422  11.2631  11.2857  11.3462  11.3888  11.4753  11.4891
    11.5602  11.6310  11.7336  12.0322  12.1379  12.1442  12.2886  12.3051
    12.3152  12.3402  12.4197  12.5806  12.7224  12.7949  12.8890  12.9547
    13.0062  13.0366  13.0742  13.1336  13.1576  13.2381  13.2624  13.2676
    13.3069  13.3183  13.3223  13.3753  13.5564  13.6328  13.7211  13.7224
    13.7913  13.8599

          k = 0.2500-0.7217 0.0000 ( 61343 PWs)   bands (ev):

  -107.7815-107.7777-107.7759-107.7753-107.7726-107.7724-107.7721-107.7714
  -107.7712-107.7708-107.7702-107.7700-107.7697-107.7690-107.7689-107.7684
  -107.7678-107.7676-107.7662-107.7655-107.7640-107.7626-107.7625-107.7618
  -107.7603-107.7600-107.7582-107.7581-107.7566-107.7558-107.7543-107.7533
  -107.7529-107.7524-107.7523-107.7502-107.5655-107.5629-107.5627-107.5584
  -107.5558-107.5556-107.5494-107.5470-107.5469-107.5185-107.5171-107.5169
  -107.5142-107.5139-107.5131-107.5130-107.5127-107.5125 -65.2305 -65.2264
   -65.2251 -65.2246 -65.2238 -65.2234 -65.2227 -65.2213 -65.2200 -65.2181
   -65.2177 -65.2168 -65.2141 -65.2127 -65.2119 -65.2113 -65.2112 -65.2089
   -65.2074 -65.2054 -65.2052 -65.2050 -65.2045 -65.2033 -65.2027 -65.2022
   -65.2013 -65.2007 -65.1985 -65.1976 -65.1945 -65.1928 -65.1925 -65.1915
   -65.1894 -65.1890 -65.1885 -65.1878 -65.1875 -65.1854 -65.1844 -65.1841
   -65.1836 -65.1827 -65.1820 -65.1816 -65.1802 -65.1786 -65.1782 -65.1778
   -65.1776 -65.1774 -65.1771 -65.1762 -65.1757 -65.1752 -65.1743 -65.1742
   -65.1734 -65.1724 -65.1719 -65.1718 -65.1716 -65.1710 -65.1696 -65.1688
   -65.1685 -65.1681 -65.1676 -65.1675 -65.1669 -65.1665 -65.1661 -65.1658
   -65.1656 -65.1650 -65.1644 -65.1638 -65.1635 -65.1627 -65.1625 -65.1617
   -65.1608 -65.1607 -65.1605 -65.1603 -65.1599 -65.1598 -65.1597 -65.1593
   -65.1579 -65.1571 -65.1569 -65.1553 -65.1547 -65.1544 -65.1541 -65.1538
   -65.1533 -65.1530 -65.1510 -65.1501 -65.1499 -65.1490 -65.1455 -65.1436
   -65.1434 -65.1397 -65.0277 -65.0258 -65.0237 -65.0158 -65.0129 -65.0100
   -64.9947 -64.9936 -64.9906 -64.9877 -64.9875 -64.9874 -64.9863 -64.9846
   -64.9824 -64.9817 -64.9797 -64.9780 -64.9749 -64.9742 -64.9740 -64.9714
   -64.9687 -64.9648 -64.9546 -64.9526 -64.9517 -64.9516 -64.9460 -64.9460
   -64.9459 -64.9451 -64.9450 -64.9436 -64.9435 -64.9385 -64.9369 -64.9345
   -64.9344 -64.9339 -64.9338 -64.9298 -64.9268 -64.9246 -64.9245 -64.8905
   -64.8892 -64.8889 -64.8865 -64.8861 -64.8855 -64.8853 -64.8850 -64.8847
   -12.8491 -10.1038 -10.1009  -6.5001  -6.4926  -4.5167  -3.4124  -2.9087
    -2.8111  -2.6068  -2.6061  -2.5958  -2.0512  -2.0423  -2.0073  -1.9599
    -1.8877  -1.2132  -1.1769  -0.9225  -0.6828  -0.5951  -0.5934  -0.2471
    -0.2453  -0.2116  -0.1796  -0.0516  -0.0192  -0.0039  -0.0031   0.0102
     0.1684   0.1704   0.1908   0.1911   0.2072   0.2570   0.2680   0.2682
     0.2863   0.3850   0.3876   0.3899   0.3904   0.4578   0.4674   0.5267
     0.5293   0.5401   0.5514   0.5804   0.5805   0.5825   0.6003   0.6020
     0.6618   0.6632   0.6949   0.6955   0.7252   0.7253   0.7532   0.7606
     0.7618   0.8240   0.8246   0.8546   0.8747   0.8897   0.8903   0.9592
     0.9653   1.0155   1.0349   1.0359   1.0597   1.0608   1.1207   1.1287
     1.1309   1.1470   1.1474   1.1569   1.1985   1.2240   1.2253   1.2687
     1.2697   1.2921   1.2956   1.2980   1.3011   1.3188   1.3193   1.3722
     1.3756   1.3793   1.3811   1.3860   1.3957   1.4154   1.4170   1.4252
     1.4287   1.4521   1.4562   1.4739   1.4780   1.4803   1.4980   1.5272
     1.5639   1.5662   1.5723   1.5752   1.5761   1.6013   1.6108   1.6241
     1.6261   1.6547   1.6625   1.6670   1.6684   1.6761   1.6976   1.7134
     1.7179   1.7219   1.7318   1.7330   1.7443   1.7686   1.7743   1.7756
     1.7771   1.7913   1.7987   1.8102   1.8115   1.8242   1.8288   1.8364
     1.8388   1.8617   1.8765   1.8874   1.8943   1.9014   1.9084   1.9134
     1.9167   1.9219   1.9319   1.9333   1.9345   1.9432   1.9472   1.9482
     1.9639   1.9698   1.9794   1.9865   2.0014   2.0119   2.0192   2.0230
     2.0360   2.0373   2.0396   2.0399   2.0434   2.0449   2.0476   2.0531
     2.0561   2.0714   2.1189   2.1211   2.1804   2.1807   2.1812   2.1874
     2.1914   2.1959   2.2143   2.2151   2.2387   2.2487   2.2509   2.2614
     2.2802   2.2816   2.3190   2.3201   2.3232   2.3521   2.3534   2.3540
     2.3550   2.3563   2.3582   2.3603   2.3643   2.3734   2.3912   2.3926
     2.4351   2.4369   2.4416   2.4423   2.4489   2.4546   2.4632   2.4856
     2.4910   2.4952   2.5078   2.5279   2.5302   2.5495   2.5579   2.5587
     2.5702   2.5742   2.6025   2.6094   2.6143   2.6202   2.6440   2.6466
     2.6664   2.6711   2.6712   2.6899   2.6935   2.7123   2.7158   2.7181
     2.7195   2.7248   2.7322   2.7340   2.7398   2.7469   2.7581   2.7760
     2.8068   2.8085   2.8099   2.8185   2.8605   2.8615   2.8744   2.8802
     2.9059   2.9175   2.9198   2.9260   2.9270   2.9347   2.9406   2.9698
     2.9722   2.9725   2.9800   2.9813   2.9900   2.9932   2.9950   2.9961
     3.0005   3.0034   3.0045   3.0059   3.0095   3.0221   3.0241   3.0366
     3.0377   3.0487   3.0490   3.0531   3.0613   3.0762   3.0819   3.0888
     3.0899   3.1064   3.1314   3.1328   3.1484   3.1686   3.1697   3.3292
     3.3420   3.4374   3.4377   3.5360   3.5375   3.6554   3.8593   3.8667
     4.2469   4.2742   4.3458   4.3472   4.3621   4.6214   4.7219   4.7420
     4.7524   4.7530   4.9114   5.1937   5.2219   5.2241   5.6736   5.7061
     5.7390   5.8326   5.9603   5.9711   5.9719   6.1068   6.1207   6.1919
     6.2753   6.6320   6.7011   6.7115   6.8777   6.9933   7.0115   7.0802
     7.0950   7.1878   7.2292   7.4222   7.6426   7.7501   7.9429   7.9792
     8.4597   8.5287   8.5314   8.6341   8.7486   8.9539   9.1576   9.1686
     9.2266   9.3277   9.3573   9.4919   9.5164   9.6307   9.7055   9.7394
     9.8109   9.9578  10.0184  10.1247  10.1823  10.3748  10.4251  10.4693
    10.5257  10.6301  10.7569  10.8537  10.9023  11.0325  11.0923  11.1989
    11.2209  11.2577  11.4649  11.5184  11.5305  11.6040  11.6201  11.7150
    11.7486  11.8492  11.8884  11.9140  11.9872  12.0947  12.1240  12.1822
    12.2971  12.3903  12.4550  12.4672  12.5509  12.6037  12.6127  12.6617
    12.7164  12.7805  12.8399  12.8498  12.9474  13.0464  13.1671  13.1873
    13.3095  13.3277  13.3840  13.4363  13.4943  13.5481  13.5764  13.6495
    13.6994  13.7091

          k =-0.2500 0.1443 0.0000 ( 61417 PWs)   bands (ev):

  -107.7817-107.7781-107.7751-107.7742-107.7734-107.7728-107.7721-107.7718
  -107.7711-107.7704-107.7704-107.7696-107.7696-107.7692-107.7690-107.7683
  -107.7683-107.7679-107.7656-107.7648-107.7643-107.7628-107.7628-107.7618
  -107.7601-107.7601-107.7587-107.7581-107.7561-107.7548-107.7547-107.7536
  -107.7533-107.7526-107.7520-107.7502-107.5656-107.5628-107.5627-107.5583
  -107.5558-107.5557-107.5493-107.5470-107.5469-107.5194-107.5164-107.5154
  -107.5153-107.5139-107.5138-107.5134-107.5123-107.5123 -65.2331 -65.2245
   -65.2233 -65.2222 -65.2214 -65.2210 -65.2203 -65.2198 -65.2174 -65.2172
   -65.2160 -65.2159 -65.2145 -65.2142 -65.2099 -65.2091 -65.2084 -65.2068
   -65.2058 -65.2051 -65.2045 -65.2044 -65.2042 -65.2036 -65.2021 -65.2021
   -65.2014 -65.2006 -65.1971 -65.1970 -65.1947 -65.1940 -65.1940 -65.1929
   -65.1927 -65.1919 -65.1914 -65.1908 -65.1891 -65.1890 -65.1869 -65.1868
   -65.1844 -65.1834 -65.1832 -65.1828 -65.1821 -65.1821 -65.1809 -65.1803
   -65.1794 -65.1788 -65.1780 -65.1774 -65.1771 -65.1763 -65.1757 -65.1754
   -65.1745 -65.1737 -65.1732 -65.1731 -65.1727 -65.1723 -65.1722 -65.1702
   -65.1697 -65.1682 -65.1680 -65.1672 -65.1670 -65.1661 -65.1657 -65.1655
   -65.1651 -65.1645 -65.1645 -65.1638 -65.1635 -65.1634 -65.1634 -65.1621
   -65.1619 -65.1607 -65.1603 -65.1593 -65.1587 -65.1587 -65.1581 -65.1581
   -65.1577 -65.1574 -65.1556 -65.1547 -65.1546 -65.1522 -65.1515 -65.1513
   -65.1513 -65.1501 -65.1496 -65.1477 -65.1476 -65.1469 -65.1445 -65.1437
   -65.1406 -65.1375 -65.0251 -65.0211 -65.0206 -65.0159 -65.0139 -65.0054
   -65.0047 -64.9997 -64.9992 -64.9937 -64.9856 -64.9835 -64.9801 -64.9800
   -64.9798 -64.9789 -64.9787 -64.9785 -64.9762 -64.9745 -64.9714 -64.9669
   -64.9667 -64.9658 -64.9630 -64.9612 -64.9610 -64.9582 -64.9461 -64.9435
   -64.9434 -64.9428 -64.9426 -64.9416 -64.9387 -64.9385 -64.9368 -64.9346
   -64.9345 -64.9345 -64.9308 -64.9276 -64.9267 -64.9246 -64.9245 -64.8913
   -64.8885 -64.8875 -64.8874 -64.8861 -64.8861 -64.8856 -64.8846 -64.8846
   -12.8499 -10.1015 -10.0989  -6.5012  -6.4929  -4.5440  -3.8323  -3.2197
    -2.9368  -2.5924  -2.2873  -2.2298  -1.9804  -1.9395  -1.6836  -1.5189
    -1.5178  -1.2177  -1.0416  -1.0358  -0.9091  -0.7570  -0.4617  -0.4613
    -0.3755  -0.3691  -0.2772  -0.2504  -0.1771  -0.1761  -0.0443  -0.0402
    -0.0046   0.0011   0.0046   0.0946   0.0985   0.0988   0.2700   0.2788
     0.3035   0.3690   0.3695   0.5505   0.5590   0.5906   0.5907   0.6118
     0.6267   0.6267   0.6479   0.6487   0.6918   0.6967   0.6981   0.6994
     0.7104   0.7109   0.7522   0.7522   0.7876   0.7877   0.8174   0.8176
     0.8209   0.8683   0.8699   0.8837   0.8837   0.9043   0.9050   0.9172
     0.9173   0.9468   0.9474   0.9930   1.0605   1.0605   1.0631   1.0899
     1.0900   1.1018   1.1035   1.1362   1.1368   1.1744   1.1765   1.1766
     1.2426   1.2426   1.2585   1.2658   1.2863   1.2872   1.3318   1.3330
     1.3463   1.3676   1.3696   1.3734   1.3992   1.4442   1.4466   1.4602
     1.4615   1.4718   1.4958   1.5071   1.5224   1.5420   1.5432   1.5528
     1.5780   1.5785   1.6058   1.6442   1.6650   1.6691   1.6725   1.6757
     1.6820   1.6870   1.6997   1.7197   1.7315   1.7386   1.7407   1.7542
     1.7553   1.7590   1.7738   1.7814   1.7849   1.7856   1.7982   1.8036
     1.8156   1.8239   1.8242   1.8325   1.8368   1.8511   1.8516   1.8563
     1.8585   1.8615   1.8675   1.8725   1.8865   1.8889   1.8980   1.9071
     1.9123   1.9211   1.9224   1.9402   1.9452   1.9538   1.9542   1.9734
     1.9790   1.9810   1.9947   2.0023   2.0026   2.0051   2.0141   2.0195
     2.0333   2.0423   2.0705   2.0726   2.0880   2.0885   2.0915   2.0929
     2.1020   2.1152   2.1175   2.1350   2.1441   2.1455   2.1550   2.1710
     2.1932   2.1981   2.2275   2.2366   2.2411   2.2418   2.2512   2.2529
     2.3021   2.3206   2.3454   2.3463   2.3526   2.3540   2.3677   2.3685
     2.3974   2.3987   2.4096   2.4104   2.4136   2.4164   2.4419   2.4431
     2.4771   2.4820   2.4865   2.4875   2.4949   2.5198   2.5230   2.5261
     2.5266   2.5304   2.5603   2.5724   2.5764   2.5804   2.5821   2.5981
     2.6031   2.6037   2.6215   2.6235   2.6254   2.6256   2.6360   2.6399
     2.6590   2.6674   2.7099   2.7157   2.7190   2.7458   2.7482   2.7578
     2.7608   2.7619   2.7624   2.7661   2.7826   2.7840   2.7847   2.7977
     2.8013   2.8027   2.8063   2.8207   2.8441   2.8529   2.8530   2.8555
     2.8661   2.8675   2.8844   2.8868   2.8939   2.8956   2.9419   2.9422
     2.9430   2.9454   2.9455   2.9557   2.9644   2.9656   2.9684   2.9735
     2.9762   2.9765   2.9824   2.9827   2.9875   2.9921   3.0001   3.0017
     3.0196   3.0307   3.0309   3.0319   3.0339   3.0380   3.0390   3.0396
     3.0619   3.0702   3.0817   3.0834   3.0870   3.0878   3.1008   3.1027
     3.1603   3.1927   3.2412   3.3207   3.3468   3.3473   3.4323   3.5071
     3.5074   3.7603   3.8075   3.8125   3.8178   3.8467   4.1233   4.3442
     4.5160   4.7823   4.7870   5.0121   5.0995   5.1127   5.1407   5.8753
     5.8759   6.0945   6.2101   6.2497   6.2708   6.2715   6.5006   6.7243
     6.8143   6.9114   6.9486   7.1554   7.1916   7.3492   7.5026   7.7719
     7.8036   7.8172   7.9840   8.0672   8.2626   8.2773   8.2874   8.4152
     8.4401   8.7376   8.7448   8.7507   8.8837   8.9626   9.2895   9.2937
     9.3162   9.4386   9.5708   9.6823   9.8026   9.8290   9.9160   9.9658
    10.0221  10.0364  10.0757  10.1604  10.2645  10.4226  10.4445  10.4560
    10.5402  10.5645  10.6164  10.6869  10.7290  10.7898  10.8019  10.8963
    10.9401  10.9742  10.9908  11.0276  11.1020  11.2612  11.4540  11.4665
    11.5164  11.5220  11.5920  11.6298  11.7180  11.7763  11.9276  11.9521
    12.0615  12.1789  12.2385  12.3214  12.3675  12.4182  12.4833  12.4947
    12.5488  12.5988  12.6720  12.7212  12.8249  12.8400  12.8823  12.8887
    12.9705  13.0447  13.1332  13.1504  13.2032  13.2516  13.2854  13.3981
    13.4090  13.4325

          k = 0.2500 0.1443 0.0000 ( 61417 PWs)   bands (ev):

  -107.7817-107.7781-107.7751-107.7742-107.7734-107.7728-107.7721-107.7718
  -107.7711-107.7704-107.7704-107.7696-107.7696-107.7692-107.7690-107.7683
  -107.7683-107.7679-107.7656-107.7648-107.7643-107.7628-107.7628-107.7618
  -107.7602-107.7601-107.7587-107.7581-107.7561-107.7548-107.7547-107.7536
  -107.7533-107.7526-107.7520-107.7502-107.5656-107.5628-107.5627-107.5583
  -107.5558-107.5558-107.5493-107.5470-107.5469-107.5194-107.5164-107.5154
  -107.5153-107.5139-107.5138-107.5134-107.5123-107.5123 -65.2331 -65.2245
   -65.2233 -65.2222 -65.2214 -65.2210 -65.2203 -65.2198 -65.2174 -65.2172
   -65.2160 -65.2159 -65.2145 -65.2142 -65.2099 -65.2091 -65.2084 -65.2068
   -65.2058 -65.2051 -65.2045 -65.2044 -65.2042 -65.2037 -65.2021 -65.2021
   -65.2014 -65.2006 -65.1971 -65.1970 -65.1947 -65.1940 -65.1940 -65.1929
   -65.1927 -65.1919 -65.1914 -65.1908 -65.1891 -65.1890 -65.1869 -65.1868
   -65.1844 -65.1834 -65.1832 -65.1828 -65.1821 -65.1821 -65.1809 -65.1803
   -65.1794 -65.1788 -65.1780 -65.1774 -65.1771 -65.1763 -65.1757 -65.1754
   -65.1745 -65.1737 -65.1731 -65.1731 -65.1727 -65.1723 -65.1722 -65.1702
   -65.1697 -65.1682 -65.1680 -65.1672 -65.1670 -65.1661 -65.1657 -65.1655
   -65.1651 -65.1645 -65.1645 -65.1638 -65.1636 -65.1634 -65.1634 -65.1621
   -65.1619 -65.1607 -65.1603 -65.1593 -65.1587 -65.1587 -65.1581 -65.1581
   -65.1577 -65.1574 -65.1556 -65.1547 -65.1546 -65.1522 -65.1515 -65.1513
   -65.1513 -65.1501 -65.1496 -65.1477 -65.1476 -65.1469 -65.1445 -65.1437
   -65.1406 -65.1375 -65.0251 -65.0211 -65.0206 -65.0159 -65.0139 -65.0054
   -65.0047 -64.9997 -64.9992 -64.9937 -64.9856 -64.9835 -64.9801 -64.9800
   -64.9798 -64.9789 -64.9787 -64.9785 -64.9762 -64.9745 -64.9714 -64.9669
   -64.9667 -64.9658 -64.9630 -64.9612 -64.9610 -64.9582 -64.9461 -64.9435
   -64.9434 -64.9428 -64.9426 -64.9416 -64.9387 -64.9385 -64.9368 -64.9346
   -64.9345 -64.9345 -64.9308 -64.9276 -64.9267 -64.9246 -64.9245 -64.8913
   -64.8885 -64.8875 -64.8874 -64.8861 -64.8861 -64.8856 -64.8846 -64.8846
   -12.8499 -10.1015 -10.0989  -6.5011  -6.4930  -4.5440  -3.8323  -3.2197
    -2.9368  -2.5924  -2.2873  -2.2298  -1.9805  -1.9394  -1.6836  -1.5189
    -1.5178  -1.2177  -1.0416  -1.0358  -0.9091  -0.7570  -0.4617  -0.4613
    -0.3755  -0.3691  -0.2772  -0.2504  -0.1771  -0.1761  -0.0443  -0.0402
    -0.0046   0.0011   0.0047   0.0946   0.0985   0.0988   0.2700   0.2788
     0.3035   0.3690   0.3695   0.5505   0.5590   0.5906   0.5907   0.6118
     0.6267   0.6267   0.6479   0.6487   0.6918   0.6967   0.6981   0.6994
     0.7104   0.7109   0.7522   0.7522   0.7876   0.7877   0.8174   0.8176
     0.8209   0.8683   0.8699   0.8837   0.8837   0.9043   0.9050   0.9172
     0.9173   0.9468   0.9474   0.9930   1.0605   1.0605   1.0631   1.0899
     1.0900   1.1018   1.1035   1.1362   1.1368   1.1744   1.1765   1.1766
     1.2426   1.2426   1.2585   1.2658   1.2863   1.2872   1.3318   1.3330
     1.3463   1.3676   1.3696   1.3734   1.3992   1.4442   1.4466   1.4602
     1.4615   1.4718   1.4958   1.5071   1.5224   1.5420   1.5432   1.5528
     1.5780   1.5785   1.6058   1.6442   1.6650   1.6691   1.6725   1.6757
     1.6820   1.6870   1.6997   1.7197   1.7315   1.7386   1.7407   1.7542
     1.7553   1.7590   1.7738   1.7814   1.7849   1.7856   1.7982   1.8036
     1.8156   1.8239   1.8242   1.8325   1.8368   1.8511   1.8516   1.8563
     1.8585   1.8615   1.8675   1.8725   1.8865   1.8889   1.8980   1.9071
     1.9123   1.9211   1.9224   1.9402   1.9452   1.9538   1.9542   1.9734
     1.9790   1.9810   1.9947   2.0023   2.0026   2.0051   2.0141   2.0195
     2.0333   2.0423   2.0705   2.0726   2.0880   2.0885   2.0915   2.0929
     2.1020   2.1152   2.1175   2.1350   2.1441   2.1455   2.1550   2.1710
     2.1932   2.1981   2.2275   2.2366   2.2411   2.2418   2.2512   2.2529
     2.3021   2.3206   2.3454   2.3463   2.3526   2.3540   2.3677   2.3685
     2.3974   2.3987   2.4096   2.4104   2.4136   2.4164   2.4419   2.4431
     2.4771   2.4820   2.4865   2.4875   2.4949   2.5198   2.5230   2.5261
     2.5266   2.5304   2.5603   2.5724   2.5764   2.5804   2.5821   2.5981
     2.6031   2.6037   2.6215   2.6235   2.6254   2.6256   2.6360   2.6399
     2.6590   2.6674   2.7099   2.7157   2.7190   2.7458   2.7482   2.7578
     2.7608   2.7619   2.7624   2.7661   2.7826   2.7840   2.7847   2.7977
     2.8013   2.8027   2.8063   2.8207   2.8441   2.8529   2.8530   2.8555
     2.8661   2.8675   2.8844   2.8868   2.8939   2.8956   2.9419   2.9422
     2.9430   2.9454   2.9455   2.9557   2.9644   2.9656   2.9684   2.9735
     2.9762   2.9765   2.9824   2.9827   2.9875   2.9921   3.0001   3.0017
     3.0196   3.0307   3.0309   3.0319   3.0339   3.0380   3.0390   3.0396
     3.0619   3.0702   3.0817   3.0834   3.0870   3.0878   3.1008   3.1027
     3.1603   3.1927   3.2412   3.3207   3.3468   3.3473   3.4323   3.5071
     3.5074   3.7603   3.8075   3.8125   3.8178   3.8467   4.1233   4.3442
     4.5160   4.7823   4.7870   5.0121   5.0995   5.1127   5.1407   5.8753
     5.8759   6.0945   6.2101   6.2497   6.2708   6.2715   6.5006   6.7243
     6.8143   6.9114   6.9486   7.1554   7.1916   7.3492   7.5026   7.7719
     7.8036   7.8172   7.9840   8.0672   8.2626   8.2773   8.2874   8.4152
     8.4401   8.7376   8.7448   8.7507   8.8837   8.9626   9.2895   9.2937
     9.3162   9.4386   9.5708   9.6823   9.8026   9.8290   9.9160   9.9658
    10.0221  10.0364  10.0757  10.1604  10.2645  10.4226  10.4445  10.4560
    10.5402  10.5645  10.6164  10.6869  10.7290  10.7898  10.8019  10.8963
    10.9401  10.9742  10.9908  11.0276  11.1019  11.2612  11.4540  11.4665
    11.5164  11.5220  11.5920  11.6298  11.7180  11.7763  11.9276  11.9521
    12.0615  12.1789  12.2385  12.3214  12.3675  12.4182  12.4834  12.4947
    12.5488  12.5988  12.6720  12.7212  12.8249  12.8400  12.8823  12.8886
    12.9705  13.0447  13.1332  13.1504  13.2032  13.2516  13.2854  13.3981
    13.4090  13.4325

          k = 0.5000-0.2887 0.0000 ( 61408 PWs)   bands (ev):

  -107.7815-107.7776-107.7763-107.7745-107.7735-107.7724-107.7717-107.7713
  -107.7710-107.7705-107.7701-107.7701-107.7699-107.7693-107.7687-107.7684
  -107.7678-107.7675-107.7665-107.7649-107.7644-107.7626-107.7625-107.7617
  -107.7602-107.7601-107.7582-107.7581-107.7569-107.7551-107.7549-107.7533
  -107.7526-107.7526-107.7523-107.7502-107.5655-107.5629-107.5627-107.5584
  -107.5558-107.5556-107.5494-107.5470-107.5469-107.5183-107.5180-107.5156
  -107.5155-107.5133-107.5132-107.5130-107.5127-107.5127 -65.2298 -65.2286
   -65.2263 -65.2250 -65.2219 -65.2212 -65.2202 -65.2199 -65.2188 -65.2186
   -65.2182 -65.2180 -65.2177 -65.2169 -65.2138 -65.2085 -65.2071 -65.2071
   -65.2067 -65.2064 -65.2059 -65.2057 -65.2052 -65.2051 -65.2028 -65.2024
   -65.2019 -65.2011 -65.1957 -65.1949 -65.1942 -65.1939 -65.1934 -65.1927
   -65.1917 -65.1884 -65.1881 -65.1864 -65.1848 -65.1846 -65.1845 -65.1841
   -65.1837 -65.1825 -65.1817 -65.1816 -65.1811 -65.1801 -65.1800 -65.1792
   -65.1773 -65.1772 -65.1768 -65.1767 -65.1765 -65.1761 -65.1750 -65.1743
   -65.1724 -65.1715 -65.1711 -65.1707 -65.1703 -65.1699 -65.1698 -65.1698
   -65.1697 -65.1695 -65.1691 -65.1680 -65.1668 -65.1668 -65.1662 -65.1656
   -65.1653 -65.1651 -65.1637 -65.1630 -65.1626 -65.1624 -65.1623 -65.1617
   -65.1612 -65.1611 -65.1599 -65.1596 -65.1595 -65.1590 -65.1589 -65.1587
   -65.1583 -65.1579 -65.1577 -65.1553 -65.1551 -65.1548 -65.1546 -65.1540
   -65.1519 -65.1516 -65.1510 -65.1509 -65.1491 -65.1485 -65.1477 -65.1470
   -65.1406 -65.1397 -65.0290 -65.0233 -65.0228 -65.0183 -65.0162 -65.0019
   -65.0010 -64.9926 -64.9900 -64.9898 -64.9881 -64.9868 -64.9834 -64.9821
   -64.9819 -64.9818 -64.9816 -64.9796 -64.9783 -64.9753 -64.9720 -64.9698
   -64.9642 -64.9633 -64.9631 -64.9509 -64.9508 -64.9508 -64.9505 -64.9460
   -64.9436 -64.9434 -64.9427 -64.9425 -64.9423 -64.9397 -64.9395 -64.9369
   -64.9345 -64.9344 -64.9307 -64.9304 -64.9268 -64.9246 -64.9245 -64.8903
   -64.8899 -64.8877 -64.8876 -64.8855 -64.8855 -64.8853 -64.8850 -64.8849
   -12.8491 -10.1050 -10.0997  -6.5044  -6.4883  -4.5165  -3.2070  -3.2067
    -2.9089  -2.6137  -2.6117  -2.5962  -2.0351  -1.9472  -1.7244  -1.6956
    -1.6741  -1.6732  -1.1740  -1.1654  -0.9079  -0.6423  -0.5477  -0.4467
    -0.4246  -0.0766  -0.0610   0.0048   0.1158   0.1229   0.1426   0.1426
     0.1430   0.1440   0.1454   0.2296   0.2961   0.3068   0.3102   0.3188
     0.3218   0.3407   0.3408   0.3412   0.3414   0.3954   0.3957   0.3963
     0.3963   0.5242   0.5589   0.5590   0.5607   0.5607   0.5926   0.6398
     0.7388   0.7389   0.7393   0.7396   0.7492   0.7714   0.7769   0.7891
     0.7893   0.7914   0.7916   0.9122   0.9124   0.9131   0.9132   0.9344
     0.9363   1.0197   1.0301   1.0305   1.0332   1.0334   1.0731   1.0733
     1.1164   1.1167   1.1811   1.1817   1.1845   1.1849   1.2468   1.2473
     1.2776   1.2796   1.2917   1.2917   1.2960   1.2970   1.3175   1.3178
     1.3370   1.3536   1.3986   1.4164   1.4188   1.4439   1.4462   1.4547
     1.4644   1.4722   1.4735   1.4749   1.4749   1.5239   1.5322   1.5331
     1.5332   1.5348   1.5357   1.5798   1.5863   1.5919   1.6066   1.6106
     1.6111   1.6175   1.6175   1.6181   1.6284   1.6719   1.6963   1.7080
     1.7093   1.7098   1.7229   1.7528   1.7572   1.7591   1.7595   1.7602
     1.7623   1.7735   1.8043   1.8231   1.8246   1.8296   1.8347   1.8418
     1.8435   1.8680   1.8757   1.8769   1.8802   1.9011   1.9021   1.9059
     1.9064   1.9084   1.9106   1.9303   1.9312   1.9403   1.9588   1.9618
     1.9642   1.9861   1.9971   1.9980   2.0547   2.0559   2.0646   2.0657
     2.0667   2.0671   2.0712   2.0724   2.0754   2.0859   2.0866   2.0866
     2.0987   2.1095   2.1103   2.1167   2.1168   2.1220   2.1247   2.1904
     2.1969   2.1981   2.2072   2.2755   2.2768   2.2780   2.2784   2.2797
     2.2810   2.2821   2.2933   2.2942   2.2964   2.3102   2.3212   2.3393
     2.3549   2.3552   2.3566   2.3621   2.3774   2.3795   2.3796   2.3806
     2.3815   2.3907   2.4038   2.4051   2.4080   2.4169   2.4173   2.4988
     2.5128   2.5353   2.5362   2.5628   2.5631   2.5643   2.5652   2.5948
     2.5948   2.6013   2.6154   2.6328   2.6356   2.6394   2.6409   2.6528
     2.6609   2.6765   2.6772   2.6779   2.6783   2.6850   2.6910   2.7088
     2.7104   2.7130   2.7191   2.7652   2.7653   2.7676   2.7682   2.7790
     2.7797   2.8002   2.8021   2.8292   2.8305   2.8392   2.8418   2.8643
     2.8644   2.8864   2.8912   2.8986   2.9105   2.9479   2.9495   2.9671
     2.9695   2.9705   2.9719   2.9909   3.0015   3.0015   3.0043   3.0050
     3.0073   3.0101   3.0283   3.0309   3.0312   3.0313   3.0319   3.0478
     3.0489   3.0505   3.0639   3.0649   3.0798   3.0819   3.0948   3.0950
     3.0960   3.1009   3.1061   3.1234   3.1356   3.1481   3.1485   3.1501
     3.1503   3.2381   3.2724   3.7779   3.8107   3.8169   3.8310   4.3111
     4.3596   4.3600   4.3603   4.3606   4.6252   4.6274   4.6288   4.6294
     4.9602   4.9772   5.0123   5.1066   5.1652   5.1704   5.1870   5.1877
     5.1959   5.4684   5.8056   6.0595   6.0796   6.1119   6.1242   6.1627
     6.1663   6.1884   6.2251   6.6062   6.7008   7.0422   7.1441   7.4696
     7.4744   7.4777   7.6649   7.8802   7.9789   8.2288   8.3391   8.4292
     8.5968   8.6043   8.6059   8.6394   8.9149   8.9543   8.9756   9.1998
     9.2472   9.2522   9.2680   9.2684   9.4509   9.6101   9.6271   9.7731
     9.8259   9.9130   9.9221   9.9298   9.9577  10.2860  10.2976  10.3845
    10.4259  10.4529  10.5363  10.5525  10.5769  10.8095  10.8568  11.0266
    11.0413  11.1423  11.2631  11.2857  11.3462  11.3888  11.4754  11.4892
    11.5602  11.6310  11.7335  12.0321  12.1379  12.1442  12.2886  12.3052
    12.3152  12.3402  12.4199  12.5805  12.7226  12.7948  12.8890  12.9546
    13.0063  13.0364  13.0742  13.1335  13.1575  13.2381  13.2624  13.2676
    13.3069  13.3183  13.3223  13.3752  13.5564  13.6324  13.7208  13.7224
    13.7913  13.8599

          k =-0.5000-0.2887 0.0000 ( 61408 PWs)   bands (ev):

  -107.7815-107.7776-107.7763-107.7745-107.7736-107.7724-107.7717-107.7713
  -107.7710-107.7705-107.7702-107.7701-107.7699-107.7693-107.7687-107.7684
  -107.7678-107.7675-107.7665-107.7649-107.7644-107.7626-107.7625-107.7617
  -107.7603-107.7600-107.7582-107.7581-107.7569-107.7550-107.7549-107.7534
  -107.7526-107.7525-107.7523-107.7502-107.5655-107.5629-107.5627-107.5584
  -107.5558-107.5557-107.5494-107.5470-107.5469-107.5183-107.5180-107.5156
  -107.5155-107.5133-107.5132-107.5130-107.5127-107.5127 -65.2298 -65.2286
   -65.2263 -65.2250 -65.2219 -65.2212 -65.2202 -65.2199 -65.2188 -65.2186
   -65.2182 -65.2180 -65.2177 -65.2169 -65.2138 -65.2085 -65.2071 -65.2071
   -65.2067 -65.2064 -65.2059 -65.2057 -65.2052 -65.2051 -65.2028 -65.2024
   -65.2019 -65.2011 -65.1957 -65.1949 -65.1942 -65.1939 -65.1934 -65.1927
   -65.1917 -65.1884 -65.1881 -65.1864 -65.1848 -65.1846 -65.1845 -65.1841
   -65.1837 -65.1825 -65.1817 -65.1816 -65.1811 -65.1801 -65.1800 -65.1792
   -65.1773 -65.1772 -65.1768 -65.1767 -65.1765 -65.1761 -65.1750 -65.1743
   -65.1724 -65.1715 -65.1711 -65.1707 -65.1703 -65.1699 -65.1698 -65.1698
   -65.1697 -65.1695 -65.1691 -65.1680 -65.1668 -65.1667 -65.1662 -65.1656
   -65.1653 -65.1651 -65.1637 -65.1630 -65.1626 -65.1624 -65.1623 -65.1617
   -65.1612 -65.1611 -65.1599 -65.1596 -65.1595 -65.1590 -65.1589 -65.1587
   -65.1583 -65.1579 -65.1577 -65.1553 -65.1552 -65.1548 -65.1546 -65.1540
   -65.1519 -65.1516 -65.1510 -65.1509 -65.1491 -65.1485 -65.1477 -65.1470
   -65.1406 -65.1397 -65.0290 -65.0233 -65.0228 -65.0183 -65.0162 -65.0019
   -65.0010 -64.9926 -64.9900 -64.9898 -64.9881 -64.9868 -64.9834 -64.9821
   -64.9819 -64.9818 -64.9816 -64.9796 -64.9783 -64.9753 -64.9720 -64.9698
   -64.9642 -64.9633 -64.9631 -64.9509 -64.9508 -64.9508 -64.9505 -64.9460
   -64.9436 -64.9434 -64.9427 -64.9425 -64.9423 -64.9397 -64.9395 -64.9369
   -64.9345 -64.9344 -64.9307 -64.9304 -64.9268 -64.9246 -64.9245 -64.8903
   -64.8899 -64.8877 -64.8876 -64.8855 -64.8855 -64.8853 -64.8850 -64.8849
   -12.8491 -10.1050 -10.0996  -6.5043  -6.4883  -4.5165  -3.2070  -3.2067
    -2.9089  -2.6137  -2.6117  -2.5962  -2.0352  -1.9471  -1.7244  -1.6956
    -1.6741  -1.6732  -1.1740  -1.1654  -0.9079  -0.6423  -0.5477  -0.4467
    -0.4246  -0.0767  -0.0610   0.0049   0.1158   0.1229   0.1426   0.1426
     0.1430   0.1440   0.1454   0.2296   0.2961   0.3068   0.3102   0.3188
     0.3218   0.3407   0.3408   0.3412   0.3414   0.3954   0.3957   0.3963
     0.3963   0.5242   0.5589   0.5590   0.5607   0.5607   0.5926   0.6398
     0.7388   0.7389   0.7393   0.7396   0.7492   0.7714   0.7769   0.7891
     0.7893   0.7914   0.7916   0.9122   0.9124   0.9131   0.9132   0.9344
     0.9363   1.0197   1.0301   1.0305   1.0332   1.0334   1.0731   1.0733
     1.1164   1.1167   1.1811   1.1817   1.1845   1.1849   1.2468   1.2473
     1.2776   1.2796   1.2917   1.2917   1.2960   1.2970   1.3175   1.3178
     1.3370   1.3536   1.3986   1.4164   1.4188   1.4439   1.4462   1.4547
     1.4644   1.4722   1.4735   1.4749   1.4749   1.5239   1.5322   1.5331
     1.5332   1.5348   1.5357   1.5798   1.5863   1.5919   1.6066   1.6106
     1.6111   1.6175   1.6175   1.6181   1.6284   1.6719   1.6963   1.7080
     1.7093   1.7098   1.7229   1.7528   1.7572   1.7591   1.7595   1.7602
     1.7623   1.7735   1.8043   1.8231   1.8246   1.8296   1.8347   1.8418
     1.8435   1.8680   1.8757   1.8769   1.8802   1.9011   1.9021   1.9059
     1.9064   1.9084   1.9106   1.9303   1.9312   1.9403   1.9588   1.9618
     1.9642   1.9861   1.9971   1.9980   2.0547   2.0559   2.0646   2.0657
     2.0667   2.0671   2.0712   2.0724   2.0754   2.0859   2.0866   2.0866
     2.0987   2.1095   2.1103   2.1167   2.1168   2.1220   2.1247   2.1904
     2.1969   2.1981   2.2072   2.2755   2.2768   2.2780   2.2784   2.2797
     2.2810   2.2821   2.2933   2.2942   2.2964   2.3102   2.3212   2.3393
     2.3549   2.3552   2.3566   2.3621   2.3774   2.3795   2.3796   2.3806
     2.3815   2.3907   2.4038   2.4051   2.4080   2.4169   2.4173   2.4988
     2.5128   2.5353   2.5362   2.5628   2.5631   2.5643   2.5652   2.5948
     2.5948   2.6013   2.6154   2.6328   2.6356   2.6394   2.6409   2.6528
     2.6609   2.6765   2.6772   2.6779   2.6783   2.6850   2.6910   2.7088
     2.7104   2.7130   2.7191   2.7652   2.7653   2.7676   2.7682   2.7790
     2.7797   2.8002   2.8021   2.8292   2.8305   2.8392   2.8418   2.8643
     2.8644   2.8864   2.8912   2.8986   2.9105   2.9479   2.9495   2.9671
     2.9695   2.9705   2.9719   2.9909   3.0015   3.0015   3.0043   3.0050
     3.0073   3.0101   3.0283   3.0309   3.0312   3.0313   3.0319   3.0478
     3.0489   3.0505   3.0639   3.0649   3.0798   3.0819   3.0948   3.0950
     3.0960   3.1009   3.1061   3.1234   3.1356   3.1481   3.1485   3.1501
     3.1503   3.2381   3.2724   3.7779   3.8107   3.8169   3.8310   4.3111
     4.3596   4.3600   4.3603   4.3606   4.6252   4.6274   4.6288   4.6294
     4.9602   4.9772   5.0123   5.1066   5.1652   5.1704   5.1870   5.1877
     5.1959   5.4684   5.8056   6.0595   6.0796   6.1119   6.1242   6.1627
     6.1663   6.1884   6.2251   6.6062   6.7008   7.0422   7.1441   7.4696
     7.4744   7.4777   7.6649   7.8802   7.9789   8.2288   8.3391   8.4292
     8.5968   8.6043   8.6059   8.6394   8.9149   8.9543   8.9756   9.1998
     9.2472   9.2522   9.2680   9.2684   9.4509   9.6100   9.6271   9.7731
     9.8259   9.9130   9.9221   9.9298   9.9577  10.2860  10.2976  10.3845
    10.4259  10.4529  10.5363  10.5525  10.5769  10.8095  10.8568  11.0266
    11.0413  11.1423  11.2631  11.2856  11.3462  11.3888  11.4754  11.4892
    11.5602  11.6310  11.7335  12.0321  12.1379  12.1442  12.2886  12.3051
    12.3153  12.3402  12.4199  12.5805  12.7226  12.7948  12.8890  12.9546
    13.0062  13.0365  13.0742  13.1335  13.1575  13.2381  13.2624  13.2676
    13.3069  13.3183  13.3223  13.3752  13.5564  13.6323  13.7209  13.7224
    13.7913  13.8603

          k =-0.2500-0.7217 0.0000 ( 61343 PWs)   bands (ev):

  -107.7815-107.7777-107.7759-107.7753-107.7726-107.7724-107.7721-107.7714
  -107.7712-107.7708-107.7702-107.7700-107.7697-107.7690-107.7689-107.7684
  -107.7678-107.7676-107.7662-107.7656-107.7640-107.7626-107.7625-107.7618
  -107.7603-107.7600-107.7582-107.7581-107.7566-107.7558-107.7543-107.7533
  -107.7529-107.7524-107.7522-107.7502-107.5655-107.5629-107.5627-107.5584
  -107.5558-107.5556-107.5494-107.5470-107.5469-107.5185-107.5171-107.5169
  -107.5142-107.5139-107.5132-107.5130-107.5127-107.5125 -65.2305 -65.2264
   -65.2251 -65.2246 -65.2238 -65.2234 -65.2227 -65.2213 -65.2200 -65.2181
   -65.2177 -65.2168 -65.2141 -65.2127 -65.2119 -65.2113 -65.2112 -65.2089
   -65.2074 -65.2054 -65.2052 -65.2049 -65.2045 -65.2033 -65.2027 -65.2022
   -65.2013 -65.2007 -65.1985 -65.1976 -65.1945 -65.1928 -65.1925 -65.1915
   -65.1894 -65.1890 -65.1885 -65.1878 -65.1875 -65.1854 -65.1844 -65.1841
   -65.1836 -65.1827 -65.1820 -65.1816 -65.1802 -65.1786 -65.1782 -65.1778
   -65.1776 -65.1774 -65.1771 -65.1762 -65.1757 -65.1752 -65.1743 -65.1742
   -65.1734 -65.1724 -65.1719 -65.1718 -65.1716 -65.1710 -65.1696 -65.1688
   -65.1685 -65.1681 -65.1676 -65.1675 -65.1669 -65.1665 -65.1661 -65.1658
   -65.1656 -65.1650 -65.1644 -65.1638 -65.1635 -65.1627 -65.1625 -65.1617
   -65.1608 -65.1607 -65.1605 -65.1603 -65.1599 -65.1597 -65.1597 -65.1593
   -65.1579 -65.1571 -65.1569 -65.1553 -65.1547 -65.1544 -65.1541 -65.1538
   -65.1533 -65.1530 -65.1510 -65.1501 -65.1499 -65.1490 -65.1455 -65.1436
   -65.1434 -65.1397 -65.0277 -65.0258 -65.0237 -65.0158 -65.0129 -65.0100
   -64.9947 -64.9936 -64.9906 -64.9877 -64.9875 -64.9874 -64.9863 -64.9846
   -64.9824 -64.9817 -64.9797 -64.9780 -64.9749 -64.9742 -64.9740 -64.9714
   -64.9687 -64.9648 -64.9546 -64.9526 -64.9517 -64.9516 -64.9460 -64.9460
   -64.9459 -64.9451 -64.9450 -64.9436 -64.9435 -64.9385 -64.9369 -64.9345
   -64.9344 -64.9339 -64.9338 -64.9298 -64.9268 -64.9246 -64.9245 -64.8905
   -64.8892 -64.8889 -64.8865 -64.8861 -64.8855 -64.8853 -64.8850 -64.8847
   -12.8491 -10.1037 -10.1009  -6.5002  -6.4925  -4.5167  -3.4124  -2.9087
    -2.8111  -2.6068  -2.6061  -2.5958  -2.0512  -2.0424  -2.0073  -1.9600
    -1.8876  -1.2132  -1.1769  -0.9225  -0.6828  -0.5951  -0.5934  -0.2471
    -0.2453  -0.2116  -0.1796  -0.0515  -0.0193  -0.0039  -0.0031   0.0102
     0.1684   0.1704   0.1908   0.1911   0.2072   0.2570   0.2680   0.2682
     0.2863   0.3850   0.3876   0.3899   0.3904   0.4578   0.4675   0.5267
     0.5293   0.5401   0.5514   0.5804   0.5805   0.5825   0.6003   0.6020
     0.6618   0.6632   0.6949   0.6955   0.7253   0.7253   0.7532   0.7606
     0.7618   0.8240   0.8246   0.8546   0.8747   0.8897   0.8903   0.9592
     0.9653   1.0155   1.0349   1.0359   1.0597   1.0608   1.1207   1.1287
     1.1309   1.1470   1.1474   1.1569   1.1985   1.2240   1.2253   1.2687
     1.2697   1.2921   1.2956   1.2980   1.3011   1.3188   1.3193   1.3722
     1.3756   1.3793   1.3811   1.3860   1.3957   1.4154   1.4170   1.4252
     1.4287   1.4521   1.4562   1.4739   1.4780   1.4803   1.4980   1.5272
     1.5639   1.5662   1.5723   1.5752   1.5761   1.6013   1.6108   1.6241
     1.6261   1.6547   1.6625   1.6670   1.6684   1.6761   1.6976   1.7134
     1.7179   1.7219   1.7318   1.7330   1.7443   1.7686   1.7743   1.7756
     1.7771   1.7913   1.7987   1.8102   1.8115   1.8242   1.8288   1.8364
     1.8388   1.8617   1.8765   1.8874   1.8943   1.9014   1.9084   1.9134
     1.9167   1.9219   1.9319   1.9333   1.9345   1.9432   1.9472   1.9482
     1.9639   1.9698   1.9794   1.9865   2.0014   2.0119   2.0192   2.0230
     2.0360   2.0373   2.0396   2.0399   2.0433   2.0449   2.0476   2.0531
     2.0561   2.0713   2.1189   2.1211   2.1804   2.1807   2.1812   2.1874
     2.1914   2.1959   2.2143   2.2151   2.2387   2.2487   2.2509   2.2614
     2.2802   2.2816   2.3190   2.3201   2.3232   2.3521   2.3534   2.3540
     2.3550   2.3563   2.3582   2.3603   2.3643   2.3734   2.3912   2.3926
     2.4351   2.4369   2.4416   2.4423   2.4489   2.4546   2.4632   2.4856
     2.4910   2.4952   2.5078   2.5279   2.5302   2.5495   2.5579   2.5587
     2.5702   2.5742   2.6025   2.6095   2.6143   2.6202   2.6440   2.6466
     2.6664   2.6711   2.6713   2.6899   2.6935   2.7123   2.7158   2.7181
     2.7195   2.7248   2.7322   2.7339   2.7398   2.7469   2.7581   2.7760
     2.8068   2.8085   2.8099   2.8185   2.8605   2.8615   2.8744   2.8802
     2.9059   2.9175   2.9198   2.9260   2.9270   2.9347   2.9406   2.9698
     2.9722   2.9725   2.9800   2.9813   2.9900   2.9932   2.9950   2.9961
     3.0005   3.0034   3.0045   3.0059   3.0095   3.0221   3.0241   3.0366
     3.0377   3.0487   3.0490   3.0531   3.0613   3.0762   3.0819   3.0888
     3.0899   3.1064   3.1314   3.1328   3.1484   3.1686   3.1697   3.3292
     3.3420   3.4374   3.4377   3.5360   3.5375   3.6554   3.8593   3.8667
     4.2469   4.2742   4.3458   4.3472   4.3621   4.6214   4.7219   4.7420
     4.7524   4.7530   4.9114   5.1937   5.2219   5.2241   5.6736   5.7061
     5.7390   5.8326   5.9603   5.9711   5.9719   6.1068   6.1207   6.1919
     6.2753   6.6320   6.7011   6.7115   6.8777   6.9933   7.0115   7.0802
     7.0950   7.1878   7.2292   7.4222   7.6426   7.7501   7.9429   7.9792
     8.4596   8.5287   8.5314   8.6341   8.7486   8.9539   9.1576   9.1686
     9.2266   9.3277   9.3573   9.4919   9.5164   9.6307   9.7055   9.7394
     9.8109   9.9578  10.0184  10.1247  10.1823  10.3748  10.4251  10.4693
    10.5257  10.6301  10.7569  10.8537  10.9023  11.0325  11.0923  11.1989
    11.2209  11.2577  11.4649  11.5184  11.5305  11.6040  11.6201  11.7150
    11.7486  11.8492  11.8884  11.9140  11.9872  12.0947  12.1240  12.1822
    12.2972  12.3903  12.4550  12.4672  12.5509  12.6037  12.6127  12.6617
    12.7164  12.7805  12.8399  12.8498  12.9474  13.0464  13.1672  13.1873
    13.3095  13.3277  13.3840  13.4363  13.4943  13.5481  13.5765  13.6495
    13.6995  13.7091

          k =-0.5000-0.5774 0.0000 ( 61343 PWs)   bands (ev):

  -107.7815-107.7777-107.7759-107.7753-107.7726-107.7724-107.7721-107.7714
  -107.7712-107.7708-107.7702-107.7700-107.7697-107.7690-107.7689-107.7684
  -107.7678-107.7676-107.7662-107.7656-107.7640-107.7626-107.7625-107.7618
  -107.7603-107.7600-107.7582-107.7581-107.7566-107.7558-107.7543-107.7533
  -107.7529-107.7524-107.7522-107.7502-107.5655-107.5629-107.5627-107.5584
  -107.5558-107.5556-107.5494-107.5470-107.5469-107.5185-107.5171-107.5169
  -107.5142-107.5139-107.5132-107.5130-107.5127-107.5125 -65.2305 -65.2264
   -65.2251 -65.2246 -65.2238 -65.2234 -65.2227 -65.2213 -65.2200 -65.2181
   -65.2177 -65.2168 -65.2141 -65.2127 -65.2119 -65.2113 -65.2112 -65.2089
   -65.2074 -65.2054 -65.2052 -65.2049 -65.2045 -65.2033 -65.2027 -65.2022
   -65.2013 -65.2007 -65.1985 -65.1976 -65.1945 -65.1928 -65.1925 -65.1915
   -65.1894 -65.1890 -65.1885 -65.1878 -65.1875 -65.1854 -65.1844 -65.1841
   -65.1836 -65.1827 -65.1820 -65.1816 -65.1802 -65.1786 -65.1782 -65.1778
   -65.1776 -65.1774 -65.1771 -65.1762 -65.1757 -65.1752 -65.1743 -65.1742
   -65.1734 -65.1724 -65.1719 -65.1718 -65.1716 -65.1710 -65.1696 -65.1688
   -65.1685 -65.1681 -65.1676 -65.1675 -65.1669 -65.1665 -65.1661 -65.1658
   -65.1656 -65.1650 -65.1644 -65.1638 -65.1635 -65.1627 -65.1625 -65.1617
   -65.1608 -65.1607 -65.1605 -65.1603 -65.1599 -65.1597 -65.1597 -65.1593
   -65.1579 -65.1571 -65.1569 -65.1553 -65.1547 -65.1544 -65.1541 -65.1538
   -65.1533 -65.1530 -65.1510 -65.1501 -65.1499 -65.1490 -65.1455 -65.1436
   -65.1434 -65.1397 -65.0277 -65.0258 -65.0237 -65.0157 -65.0129 -65.0100
   -64.9947 -64.9936 -64.9906 -64.9877 -64.9875 -64.9874 -64.9863 -64.9846
   -64.9824 -64.9817 -64.9797 -64.9780 -64.9749 -64.9742 -64.9740 -64.9714
   -64.9687 -64.9648 -64.9546 -64.9526 -64.9517 -64.9516 -64.9460 -64.9460
   -64.9459 -64.9451 -64.9450 -64.9436 -64.9435 -64.9385 -64.9369 -64.9345
   -64.9344 -64.9339 -64.9338 -64.9298 -64.9268 -64.9246 -64.9245 -64.8905
   -64.8892 -64.8889 -64.8865 -64.8861 -64.8855 -64.8853 -64.8849 -64.8847
   -12.8491 -10.1036 -10.1011  -6.5005  -6.4921  -4.5167  -3.4124  -2.9087
    -2.8111  -2.6068  -2.6061  -2.5958  -2.0512  -2.0424  -2.0073  -1.9600
    -1.8876  -1.2132  -1.1769  -0.9225  -0.6828  -0.5951  -0.5934  -0.2471
    -0.2453  -0.2116  -0.1796  -0.0514  -0.0194  -0.0039  -0.0031   0.0101
     0.1684   0.1704   0.1908   0.1911   0.2072   0.2570   0.2680   0.2682
     0.2863   0.3850   0.3876   0.3899   0.3904   0.4578   0.4675   0.5267
     0.5293   0.5401   0.5514   0.5804   0.5805   0.5825   0.6003   0.6020
     0.6618   0.6632   0.6949   0.6955   0.7253   0.7253   0.7532   0.7606
     0.7618   0.8240   0.8246   0.8546   0.8747   0.8897   0.8903   0.9592
     0.9653   1.0155   1.0349   1.0359   1.0597   1.0608   1.1207   1.1287
     1.1309   1.1470   1.1473   1.1569   1.1985   1.2240   1.2253   1.2687
     1.2697   1.2921   1.2956   1.2980   1.3011   1.3188   1.3193   1.3722
     1.3756   1.3793   1.3811   1.3860   1.3957   1.4154   1.4170   1.4252
     1.4287   1.4521   1.4562   1.4739   1.4780   1.4803   1.4980   1.5272
     1.5639   1.5662   1.5723   1.5752   1.5761   1.6013   1.6108   1.6241
     1.6261   1.6547   1.6625   1.6670   1.6684   1.6761   1.6976   1.7134
     1.7179   1.7219   1.7318   1.7330   1.7444   1.7686   1.7743   1.7756
     1.7771   1.7913   1.7987   1.8102   1.8115   1.8242   1.8288   1.8364
     1.8388   1.8617   1.8765   1.8874   1.8943   1.9014   1.9084   1.9134
     1.9167   1.9219   1.9319   1.9333   1.9345   1.9432   1.9472   1.9482
     1.9639   1.9698   1.9794   1.9865   2.0014   2.0119   2.0192   2.0230
     2.0360   2.0373   2.0396   2.0399   2.0433   2.0449   2.0476   2.0531
     2.0561   2.0714   2.1189   2.1211   2.1804   2.1807   2.1811   2.1874
     2.1914   2.1959   2.2143   2.2151   2.2387   2.2487   2.2509   2.2614
     2.2802   2.2816   2.3190   2.3201   2.3232   2.3521   2.3534   2.3540
     2.3550   2.3563   2.3582   2.3603   2.3643   2.3734   2.3912   2.3926
     2.4351   2.4369   2.4416   2.4423   2.4489   2.4546   2.4632   2.4856
     2.4910   2.4952   2.5078   2.5279   2.5302   2.5495   2.5579   2.5587
     2.5702   2.5742   2.6025   2.6095   2.6142   2.6202   2.6440   2.6466
     2.6664   2.6711   2.6713   2.6899   2.6935   2.7123   2.7158   2.7181
     2.7195   2.7248   2.7321   2.7340   2.7398   2.7469   2.7581   2.7760
     2.8068   2.8085   2.8099   2.8185   2.8605   2.8615   2.8744   2.8802
     2.9059   2.9175   2.9198   2.9260   2.9270   2.9347   2.9406   2.9698
     2.9722   2.9725   2.9800   2.9813   2.9900   2.9932   2.9950   2.9961
     3.0005   3.0034   3.0045   3.0059   3.0095   3.0221   3.0241   3.0366
     3.0377   3.0487   3.0490   3.0531   3.0613   3.0762   3.0819   3.0888
     3.0899   3.1064   3.1314   3.1328   3.1484   3.1686   3.1697   3.3292
     3.3420   3.4374   3.4377   3.5360   3.5375   3.6554   3.8593   3.8667
     4.2469   4.2742   4.3458   4.3472   4.3621   4.6214   4.7219   4.7420
     4.7524   4.7530   4.9114   5.1937   5.2219   5.2241   5.6736   5.7061
     5.7390   5.8326   5.9603   5.9711   5.9719   6.1068   6.1207   6.1919
     6.2753   6.6320   6.7010   6.7115   6.8777   6.9934   7.0115   7.0801
     7.0950   7.1878   7.2292   7.4222   7.6426   7.7501   7.9429   7.9792
     8.4596   8.5287   8.5314   8.6341   8.7486   8.9539   9.1576   9.1686
     9.2266   9.3277   9.3573   9.4919   9.5164   9.6307   9.7055   9.7395
     9.8109   9.9578  10.0184  10.1247  10.1823  10.3748  10.4251  10.4693
    10.5257  10.6301  10.7569  10.8537  10.9023  11.0325  11.0924  11.1990
    11.2209  11.2577  11.4650  11.5185  11.5305  11.6040  11.6200  11.7149
    11.7486  11.8492  11.8884  11.9140  11.9872  12.0947  12.1239  12.1823
    12.2973  12.3903  12.4550  12.4672  12.5509  12.6037  12.6127  12.6617
    12.7164  12.7804  12.8399  12.8497  12.9474  13.0464  13.1671  13.1872
    13.3095  13.3277  13.3840  13.4363  13.4943  13.5482  13.5765  13.6495
    13.6994  13.7091

     the Fermi energy is     4.6670 ev

!    total energy              =  -21903.76402286 Ry
     Harris-Foulkes estimate   =  -21903.76402287 Ry
     estimated scf accuracy    <          3.4E-09 Ry

     The total energy is the sum of the following terms:

     one-electron contribution = -208012.13123432 Ry
     hartree contribution      =  104210.63272900 Ry
     xc contribution           =   -2143.22794385 Ry
     ewald contribution        =   84041.01520655 Ry
     smearing contrib. (-TS)   =      -0.05278025 Ry

     convergence has been achieved in  36 iterations
 
     init_run     :     72.54s CPU     75.11s WALL (       1 calls)
     electrons    :  17055.55s CPU  17269.53s WALL (       1 calls)

     Called by init_run:
     wfcinit      :     62.44s CPU     64.18s WALL (       1 calls)
     potinit      :      7.11s CPU      7.37s WALL (       1 calls)
     hinit0       :      1.28s CPU      1.32s WALL (       1 calls)

     Called by electrons:
     c_bands      :  15608.71s CPU  15779.34s WALL (      36 calls)
     sum_band     :   1138.84s CPU   1163.00s WALL (      36 calls)
     v_of_rho     :    259.02s CPU    264.64s WALL (      37 calls)
     newd         :     43.74s CPU     57.53s WALL (      37 calls)
     mix_rho      :      6.83s CPU      6.88s WALL (      36 calls)

     Called by c_bands:
     init_us_2    :     12.50s CPU     12.78s WALL (     730 calls)
     cegterg      :  15498.39s CPU  15663.89s WALL (     360 calls)

     Called by sum_band:
     sum_band:bec :      1.96s CPU      1.96s WALL (     360 calls)
     addusdens    :     29.44s CPU     43.16s WALL (      36 calls)

     Called by *egterg:
     h_psi        :   4967.42s CPU   5028.15s WALL (    1834 calls)
     s_psi        :    336.06s CPU    336.26s WALL (    1834 calls)
     g_psi        :      5.54s CPU      5.55s WALL (    1464 calls)
     cdiaghg      :   8125.93s CPU   8178.21s WALL (    1824 calls)

     Called by h_psi:
     h_psi:pot    :   4958.79s CPU   5008.03s WALL (    1834 calls)
     h_psi:calbec :    440.56s CPU    442.53s WALL (    1834 calls)
     vloc_psi     :   4181.56s CPU   4228.40s WALL (    1834 calls)
     add_vuspsi   :    336.65s CPU    337.09s WALL (    1834 calls)

     General routines
     calbec       :    598.80s CPU    601.00s WALL (    2194 calls)
     fft          :    248.10s CPU    249.41s WALL (    2330 calls)
     ffts         :      8.39s CPU      8.40s WALL (      73 calls)
     fftw         :   4894.55s CPU   4948.35s WALL ( 1440070 calls)
     interpolate  :      4.53s CPU      4.56s WALL (      37 calls)
 
     Parallel routines
     fft_scatt_xy :    199.58s CPU    201.14s WALL ( 1442473 calls)
     fft_scatt_yz :   4185.00s CPU   4229.83s WALL ( 1442473 calls)
 
     PWSCF        :     4h45m CPU       45h 4m WALL

      49h
 
   This run was terminated on:  19:49:49  21Nov2019            

=------------------------------------------------------------------------------=
   JOB DONE.
=------------------------------------------------------------------------------=
