
     Program PWSCF v.6.3MaX starts on 22Nov2019 at 12: 6: 6 

     This program is part of the open-source Quantum ESPRESSO suite
     for quantum simulation of materials; please cite
         "P. Giannozzi et al., J. Phys.:Condens. Matter 21 395502 (2009);
         "P. Giannozzi et al., J. Phys.:Condens. Matter 29 465901 (2017);
          URL http://www.quantum-espresso.org", 
     in publications or presentations arising from this work. More details at
     http://www.quantum-espresso.org/quote

     Parallel version (MPI), running on    16 processors

     MPI processes distributed on     2 nodes
     R & G space division:  proc/nbgrp/npool/nimage =      16
     Waiting for input...
     Reading input from standard input

     Current dimensions of program PWSCF are:
     Max number of different atomic species (ntypx) = 10
     Max number of k-points (npk) =  40000
     Max angular momentum in pseudopotentials (lmaxx) =  3
     Message from routine iosys:
     minimal I/O required, wf_collect reset to FALSE

     IMPORTANT: XC functional enforced from input :
     Exchange-correlation      = VDW-DF ( 1  4  4  0 1 0)
     Any further DFT definition will be discarded
     Please, verify this is what you really want


     Subspace diagonalization in iterative solution of the eigenvalue problem:
     one sub-group per band group will be used
     scalapack distributed-memory algorithm (size of sub-group:  2*  2 procs)

 
     Parallelization info
     --------------------
     sticks:   dense  smooth     PW     G-vecs:    dense   smooth      PW
     Min         565     189     51               159513    30701    4383
     Max         566     190     52               159526    30710    4400
     Sum        9055    3037    823              2552337   491295   70261
 


     bravais-lattice index     =            0
     lattice parameter (alat)  =      14.8058  a.u.
     unit-cell volume          =   10282.4791 (a.u.)^3
     number of atoms/cell      =           66
     number of atomic types    =            3
     number of electrons       =      1056.00
     number of Kohn-Sham states=          634
     kinetic-energy cutoff     =      50.0000  Ry
     charge density cutoff     =     600.0000  Ry
     convergence threshold     =      1.0E-08
     mixing beta               =       0.3000
     number of iterations used =            8  plain     mixing
     Exchange-correlation      = VDW-DF ( 1  4  4  0 1 0)

     celldm(1)=  14.805786  celldm(2)=   0.000000  celldm(3)=   0.000000
     celldm(4)=   0.000000  celldm(5)=   0.000000  celldm(6)=   0.000000

     crystal axes: (cart. coord. in units of alat)
               a(1) = (   1.000000   0.000000   0.000000 )  
               a(2) = (   0.500000   0.866025   0.000000 )  
               a(3) = (   0.000000   0.000000   3.658245 )  

     reciprocal axes: (cart. coord. in units 2 pi/alat)
               b(1) = (  1.000000 -0.577350  0.000000 )  
               b(2) = (  0.000000  1.154701  0.000000 )  
               b(3) = (  0.000000  0.000000  0.273355 )  


     PseudoPot. # 1 for Cu read from file:
     /deac/thonhauserGrp/chakrad/calculations/atomandmolecule-qe6.2.1-i2012-C6modif/all_pbe_UPF_v1.5/cu_pbe_v1.2.uspp.F.UPF
     MD5 check sum: 6e991ff952a84172a2a52a1c1e996048
     Pseudo is Ultrasoft + core correction, Zval = 19.0
     Generated by new atomic code, or converted to UPF format
     Using radial grid of  867 points,  6 beta functions with: 
                l(1) =   0
                l(2) =   0
                l(3) =   1
                l(4) =   1
                l(5) =   2
                l(6) =   2
     Q(r) pseudized with  8 coefficients,  rinner =    1.150   1.150   1.150
                                                       1.150   1.150

     PseudoPot. # 2 for C  read from file:
     /deac/thonhauserGrp/chakrad/calculations/atomandmolecule-qe6.2.1-i2012-C6modif/all_pbe_UPF_v1.5/c_pbe_v1.2.uspp.F.UPF
     MD5 check sum: d1aef80898a10debaa0f26306b886e00
     Pseudo is Ultrasoft + core correction, Zval =  4.0
     Generated by new atomic code, or converted to UPF format
     Using radial grid of  721 points,  4 beta functions with: 
                l(1) =   0
                l(2) =   0
                l(3) =   1
                l(4) =   1
     Q(r) pseudized with  8 coefficients,  rinner =    1.100   1.100   1.100


     PseudoPot. # 3 for H  read from file:
     /deac/thonhauserGrp/chakrad/calculations/atomandmolecule-qe6.2.1-i2012-C6modif/all_pbe_UPF_v1.5/h_pbe_v1.4.uspp.F.UPF
     MD5 check sum: 761ae9a214b05c3daf00ab9f6b793d6f
     Pseudo is Ultrasoft, Zval =  1.0
     Generated by new atomic code, or converted to UPF format
     Using radial grid of  615 points,  2 beta functions with: 
                l(1) =   0
                l(2) =   0
     Q(r) pseudized with  8 coefficients,  rinner =    0.700

     vdW kernel table read from file vdW_kernel_table
     MD5 check sum: cc9485f6209b1096fbef62427c856dab

     atomic species   valence    mass     pseudopotential
        Cu            19.00     1.00000     Cu( 1.00)
        C              4.00     1.00000     C ( 1.00)
        H              1.00     1.00000     H ( 1.00)

     No symmetry found



   Cartesian axes

     site n.     atom                  positions (alat units)
         1           Cu  tau(   1) = (   0.1666667   0.0962250   0.2552686  )
         2           Cu  tau(   2) = (   0.5000000   0.0962250   0.2552686  )
         3           Cu  tau(   3) = (   0.8333333   0.0962250   0.2552686  )
         4           Cu  tau(   4) = (   0.3333333   0.3849002   0.2552686  )
         5           Cu  tau(   5) = (   0.6666667   0.3849002   0.2552686  )
         6           Cu  tau(   6) = (   1.0000000   0.3849002   0.2552686  )
         7           Cu  tau(   7) = (   0.5000000   0.6735753   0.2552686  )
         8           Cu  tau(   8) = (   0.8333333   0.6735753   0.2552686  )
         9           Cu  tau(   9) = (   1.1666667   0.6735753   0.2552686  )
        10           Cu  tau(  10) = (   0.0000000   0.1924501   0.5274341  )
        11           Cu  tau(  11) = (   0.3333333   0.1924501   0.5274341  )
        12           Cu  tau(  12) = (   0.6666667   0.1924501   0.5274341  )
        13           Cu  tau(  13) = (   0.1666667   0.4811252   0.5274341  )
        14           Cu  tau(  14) = (   0.5000000   0.4811252   0.5274341  )
        15           Cu  tau(  15) = (   0.8333333   0.4811252   0.5274341  )
        16           Cu  tau(  16) = (   0.3333333   0.7698004   0.5274341  )
        17           Cu  tau(  17) = (   0.6666667   0.7698004   0.5274341  )
        18           Cu  tau(  18) = (   1.0000000   0.7698004   0.5274341  )
        19           Cu  tau(  19) = (   0.0000000   0.0000000   0.7995997  )
        20           Cu  tau(  20) = (   0.3333333   0.0000000   0.7995997  )
        21           Cu  tau(  21) = (   0.6666667   0.0000000   0.7995997  )
        22           Cu  tau(  22) = (   0.1666667   0.2886751   0.7995997  )
        23           Cu  tau(  23) = (   0.5000000   0.2886751   0.7995997  )
        24           Cu  tau(  24) = (   0.8333333   0.2886751   0.7995997  )
        25           Cu  tau(  25) = (   0.3333333   0.5773503   0.7995997  )
        26           Cu  tau(  26) = (   0.6666667   0.5773503   0.7995997  )
        27           Cu  tau(  27) = (   1.0000000   0.5773503   0.7995997  )
        28           Cu  tau(  28) = (   0.1666659   0.0962246   1.0691130  )
        29           Cu  tau(  29) = (   0.5000000   0.0962241   1.0691104  )
        30           Cu  tau(  30) = (   0.8333341   0.0962246   1.0691130  )
        31           Cu  tau(  31) = (   0.3333325   0.3849006   1.0691104  )
        32           Cu  tau(  32) = (   0.6666675   0.3849006   1.0691104  )
        33           Cu  tau(  33) = (   1.0000000   0.3849003   1.0691143  )
        34           Cu  tau(  34) = (   0.5000000   0.6735762   1.0691130  )
        35           Cu  tau(  35) = (   0.8333334   0.6735753   1.0691143  )
        36           Cu  tau(  36) = (   1.1666666   0.6735753   1.0691143  )
        37           Cu  tau(  37) = (   0.0000000   0.1924486   1.3387540  )
        38           Cu  tau(  38) = (   0.3333330   0.1924499   1.3387465  )
        39           Cu  tau(  39) = (   0.6666670   0.1924499   1.3387465  )
        40           Cu  tau(  40) = (   0.1666676   0.4811247   1.3387504  )
        41           Cu  tau(  41) = (   0.5000000   0.4811256   1.3387465  )
        42           Cu  tau(  42) = (   0.8333324   0.4811247   1.3387504  )
        43           Cu  tau(  43) = (   0.3333346   0.7698011   1.3387540  )
        44           Cu  tau(  44) = (   0.6666654   0.7698011   1.3387540  )
        45           Cu  tau(  45) = (   1.0000000   0.7698014   1.3387504  )
        46           Cu  tau(  46) = (   0.0000000   0.0000000   1.6083750  )
        47           Cu  tau(  47) = (   0.3333333   0.0000005   1.6083624  )
        48           Cu  tau(  48) = (   0.6666667   0.0000005   1.6083624  )
        49           Cu  tau(  49) = (   0.1666671   0.2886748   1.6083624  )
        50           Cu  tau(  50) = (   0.5000000   0.2886751   1.6083553  )
        51           Cu  tau(  51) = (   0.8333329   0.2886748   1.6083624  )
        52           Cu  tau(  52) = (   0.3333338   0.5773500   1.6083624  )
        53           Cu  tau(  53) = (   0.6666662   0.5773500   1.6083624  )
        54           Cu  tau(  54) = (   1.0000000   0.5773503   1.6083570  )
        55           C   tau(  55) = (   0.6567407   0.3959883   1.9912208  )
        56           C   tau(  56) = (   0.5046394   0.3028152   1.9912207  )
        57           C   tau(  57) = (   0.3478975   0.3879497   1.9912208  )
        58           C   tau(  58) = (   0.3432593   0.5662630   1.9912208  )
        59           C   tau(  59) = (   0.4953606   0.6594361   1.9912207  )
        60           C   tau(  60) = (   0.6521025   0.5743016   1.9912208  )
        61           H   tau(  61) = (   0.7789959   0.3295665   1.9912990  )
        62           H   tau(  62) = (   0.5082587   0.1637263   1.9912991  )
        63           H   tau(  63) = (   0.2292624   0.3152577   1.9912990  )
        64           H   tau(  64) = (   0.2210041   0.6326847   1.9912990  )
        65           H   tau(  65) = (   0.4917413   0.7985249   1.9912991  )
        66           H   tau(  66) = (   0.7707376   0.6469936   1.9912990  )

     number of k points=    10  gaussian smearing, width (Ry)=  0.0200
                       cart. coord. in units 2pi/alat
        k(    1) = (   0.0000000   0.0000000   0.0000000), wk =   0.1250000
        k(    2) = (   0.0000000   0.2886751   0.0000000), wk =   0.2500000
        k(    3) = (   0.0000000  -0.5773503   0.0000000), wk =   0.1250000
        k(    4) = (   0.2500000  -0.7216878   0.0000000), wk =   0.2500000
        k(    5) = (  -0.2500000   0.1443376   0.0000000), wk =   0.2500000
        k(    6) = (   0.2500000   0.1443376   0.0000000), wk =   0.2500000
        k(    7) = (   0.5000000  -0.2886751   0.0000000), wk =   0.1250000
        k(    8) = (  -0.5000000  -0.2886751   0.0000000), wk =   0.1250000
        k(    9) = (  -0.2500000  -0.7216878   0.0000000), wk =   0.2500000
        k(   10) = (  -0.5000000  -0.5773503   0.0000000), wk =   0.2500000

     Dense  grid:  2552337 G-vectors     FFT dimensions: ( 120, 120, 432)

     Smooth grid:   491295 G-vectors     FFT dimensions: (  72,  72, 243)

     Estimated max dynamical RAM per process >       1.14 GB

     Estimated total dynamical RAM >      18.26 GB

     Initial potential from superposition of free atoms
     Check: negative starting charge=   -0.000802

     starting charge 1001.99960, renormalised to 1056.00000

     negative rho (up, down):  8.448E-04 0.000E+00


     %%%%%%%%%%%%%%%%%%%%%%%%%%%%%%%%%%%%%%%%%%%%%%%%%%%%%%%%%%%%%%%%%%%%%%%%
     %                                                                      %
     % You are using vdW-DF, which was implemented by the Thonhauser group. %
     % Please cite the following two papers that made this development      %
     % possible and the two reviews that describe the various versions:     %
     %                                                                      %
     %   T. Thonhauser et al., PRL 115, 136402 (2015).                      %
     %   T. Thonhauser et al., PRB 76, 125112 (2007).                       %
     %   K. Berland et al., Rep. Prog. Phys. 78, 066501 (2015).             %
     %   D.C. Langreth et al., J. Phys.: Condens. Matter 21, 084203 (2009). %
     %                                                                      %
     %                                                                      %
     % If you are calculating the stress with vdW-DF, please also cite:     %
     %                                                                      %
     %   R. Sabatini et al., J. Phys.: Condens. Matter 24, 424209 (2012).   %
     %                                                                      %
     %%%%%%%%%%%%%%%%%%%%%%%%%%%%%%%%%%%%%%%%%%%%%%%%%%%%%%%%%%%%%%%%%%%%%%%%


     Starting wfcs are  732 randomized atomic wfcs

     total cpu time spent up to now is       98.3 secs

     Self-consistent Calculation

     iteration #  1     ecut=    50.00 Ry     beta= 0.30
     Davidson diagonalization with overlap
     ethr =  1.00E-02,  avg # of iterations =  5.9

     negative rho (up, down):  5.139E-04 0.000E+00

     total cpu time spent up to now is     1359.6 secs

     total energy              =  -18835.38056170 Ry
     Harris-Foulkes estimate   =  -22010.65355020 Ry
     estimated scf accuracy    <    6275.05147173 Ry

     iteration #  2     ecut=    50.00 Ry     beta= 0.30
     Davidson diagonalization with overlap
     c_bands:  2 eigenvalues not converged
     ethr =  1.00E-02,  avg # of iterations = 18.9

     negative rho (up, down):  5.595E-04 0.000E+00

     total cpu time spent up to now is     3853.8 secs

     total energy              =  -19243.28734605 Ry
     Harris-Foulkes estimate   =  -39194.96628103 Ry
     estimated scf accuracy    <  279682.29109689 Ry

     iteration #  3     ecut=    50.00 Ry     beta= 0.30
     Davidson diagonalization with overlap
     ethr =  1.00E-02,  avg # of iterations =  7.0

     negative rho (up, down):  6.323E-04 0.000E+00

     total cpu time spent up to now is     5203.5 secs

     total energy              =  -21490.42392849 Ry
     Harris-Foulkes estimate   =  -23507.39562577 Ry
     estimated scf accuracy    <   59104.72813738 Ry

     iteration #  4     ecut=    50.00 Ry     beta= 0.30
     Davidson diagonalization with overlap
     ethr =  1.00E-02,  avg # of iterations =  8.0

     negative rho (up, down):  8.410E-04 0.000E+00

     total cpu time spent up to now is     6491.2 secs

     total energy              =  -21646.34351498 Ry
     Harris-Foulkes estimate   =  -22137.74701453 Ry
     estimated scf accuracy    <   15564.14180428 Ry

     iteration #  5     ecut=    50.00 Ry     beta= 0.30
     Davidson diagonalization with overlap
     ethr =  1.00E-02,  avg # of iterations =  6.8

     negative rho (up, down):  9.328E-04 0.000E+00

     total cpu time spent up to now is     7949.9 secs

     total energy              =  -21801.64556163 Ry
     Harris-Foulkes estimate   =  -22243.89699691 Ry
     estimated scf accuracy    <    9170.92218202 Ry

     iteration #  6     ecut=    50.00 Ry     beta= 0.30
     Davidson diagonalization with overlap
     ethr =  1.00E-02,  avg # of iterations =  6.8

     negative rho (up, down):  1.081E-03 0.000E+00

     total cpu time spent up to now is     9072.8 secs

     total energy              =  -21903.03984364 Ry
     Harris-Foulkes estimate   =  -21971.65248122 Ry
     estimated scf accuracy    <    2397.85308752 Ry

     iteration #  7     ecut=    50.00 Ry     beta= 0.30
     Davidson diagonalization with overlap
     ethr =  1.00E-02,  avg # of iterations =  2.7

     negative rho (up, down):  1.236E-03 0.000E+00

     total cpu time spent up to now is     9344.4 secs

     total energy              =  -21915.10363657 Ry
     Harris-Foulkes estimate   =  -21939.94649619 Ry
     estimated scf accuracy    <     285.97883708 Ry

     iteration #  8     ecut=    50.00 Ry     beta= 0.30
     Davidson diagonalization with overlap
     ethr =  1.00E-02,  avg # of iterations =  2.4

     negative rho (up, down):  1.350E-03 0.000E+00

     total cpu time spent up to now is     9579.5 secs

     total energy              =  -21917.38470252 Ry
     Harris-Foulkes estimate   =  -21922.34697561 Ry
     estimated scf accuracy    <     167.58862346 Ry

     iteration #  9     ecut=    50.00 Ry     beta= 0.30
     Davidson diagonalization with overlap
     ethr =  1.00E-02,  avg # of iterations =  1.1

     negative rho (up, down):  1.468E-03 0.000E+00

     total cpu time spent up to now is     9767.8 secs

     total energy              =  -21913.21552116 Ry
     Harris-Foulkes estimate   =  -21918.78523850 Ry
     estimated scf accuracy    <      80.38852125 Ry

     iteration # 10     ecut=    50.00 Ry     beta= 0.30
     Davidson diagonalization with overlap
     ethr =  7.61E-03,  avg # of iterations =  2.5

     negative rho (up, down):  1.715E-03 0.000E+00

     total cpu time spent up to now is     9998.6 secs

     total energy              =  -21889.88995559 Ry
     Harris-Foulkes estimate   =  -21914.78131781 Ry
     estimated scf accuracy    <     156.37888173 Ry

     iteration # 11     ecut=    50.00 Ry     beta= 0.30
     Davidson diagonalization with overlap
     ethr =  7.61E-03,  avg # of iterations =  3.9

     negative rho (up, down):  1.258E-04 0.000E+00

     total cpu time spent up to now is    10421.5 secs

     total energy              =  -21894.08998543 Ry
     Harris-Foulkes estimate   =  -21939.23418146 Ry
     estimated scf accuracy    <    1278.42626663 Ry

     iteration # 12     ecut=    50.00 Ry     beta= 0.30
     Davidson diagonalization with overlap
     ethr =  7.61E-03,  avg # of iterations =  2.1

     negative rho (up, down):  1.758E-04 0.000E+00

     total cpu time spent up to now is    10655.3 secs

     total energy              =  -21898.68696232 Ry
     Harris-Foulkes estimate   =  -21911.74777267 Ry
     estimated scf accuracy    <     172.57983405 Ry

     iteration # 13     ecut=    50.00 Ry     beta= 0.30
     Davidson diagonalization with overlap
     ethr =  7.61E-03,  avg # of iterations =  2.0

     negative rho (up, down):  2.424E-04 0.000E+00

     total cpu time spent up to now is    10885.0 secs

     total energy              =  -21901.38219630 Ry
     Harris-Foulkes estimate   =  -21904.87945851 Ry
     estimated scf accuracy    <      18.26154564 Ry

     iteration # 14     ecut=    50.00 Ry     beta= 0.30
     Davidson diagonalization with overlap
     ethr =  1.73E-03,  avg # of iterations =  4.1

     negative rho (up, down):  2.788E-04 0.000E+00

     total cpu time spent up to now is    11241.5 secs

     total energy              =  -21903.31453131 Ry
     Harris-Foulkes estimate   =  -21904.58208670 Ry
     estimated scf accuracy    <      18.48042827 Ry

     iteration # 15     ecut=    50.00 Ry     beta= 0.30
     Davidson diagonalization with overlap
     ethr =  1.73E-03,  avg # of iterations =  1.8

     negative rho (up, down):  3.030E-04 0.000E+00

     total cpu time spent up to now is    11462.4 secs

     total energy              =  -21903.36685181 Ry
     Harris-Foulkes estimate   =  -21904.27362226 Ry
     estimated scf accuracy    <       8.92923786 Ry

     iteration # 16     ecut=    50.00 Ry     beta= 0.30
     Davidson diagonalization with overlap
     ethr =  8.46E-04,  avg # of iterations =  1.6

     negative rho (up, down):  3.371E-04 0.000E+00

     total cpu time spent up to now is    11677.0 secs

     total energy              =  -21903.78510751 Ry
     Harris-Foulkes estimate   =  -21904.04761603 Ry
     estimated scf accuracy    <       2.15624126 Ry

     iteration # 17     ecut=    50.00 Ry     beta= 0.30
     Davidson diagonalization with overlap
     ethr =  2.04E-04,  avg # of iterations =  5.6

     negative rho (up, down):  5.107E-04 0.000E+00

     total cpu time spent up to now is    12040.4 secs

     total energy              =  -21903.65739410 Ry
     Harris-Foulkes estimate   =  -21903.87867869 Ry
     estimated scf accuracy    <       1.60088235 Ry

     iteration # 18     ecut=    50.00 Ry     beta= 0.30
     Davidson diagonalization with overlap
     ethr =  1.52E-04,  avg # of iterations =  8.3

     negative rho (up, down):  5.377E-04 0.000E+00

     total cpu time spent up to now is    12516.9 secs

     total energy              =  -21903.71617202 Ry
     Harris-Foulkes estimate   =  -21903.81508660 Ry
     estimated scf accuracy    <       1.36601090 Ry

     iteration # 19     ecut=    50.00 Ry     beta= 0.30
     Davidson diagonalization with overlap
     ethr =  1.29E-04,  avg # of iterations =  3.2

     negative rho (up, down):  7.026E-04 0.000E+00

     total cpu time spent up to now is    12784.4 secs

     total energy              =  -21903.74982105 Ry
     Harris-Foulkes estimate   =  -21903.77477952 Ry
     estimated scf accuracy    <       0.21361397 Ry

     iteration # 20     ecut=    50.00 Ry     beta= 0.30
     Davidson diagonalization with overlap
     ethr =  2.02E-05,  avg # of iterations =  7.7

     negative rho (up, down):  9.273E-04 0.000E+00

     total cpu time spent up to now is    13237.1 secs

     total energy              =  -21903.74913309 Ry
     Harris-Foulkes estimate   =  -21903.76309224 Ry
     estimated scf accuracy    <       0.06386332 Ry

     iteration # 21     ecut=    50.00 Ry     beta= 0.30
     Davidson diagonalization with overlap
     ethr =  6.05E-06,  avg # of iterations =  7.2

     negative rho (up, down):  9.804E-04 0.000E+00

     total cpu time spent up to now is    13750.7 secs

     total energy              =  -21903.74282014 Ry
     Harris-Foulkes estimate   =  -21903.76702456 Ry
     estimated scf accuracy    <       0.21923713 Ry

     iteration # 22     ecut=    50.00 Ry     beta= 0.30
     Davidson diagonalization with overlap
     ethr =  6.05E-06,  avg # of iterations =  4.5

     negative rho (up, down):  1.114E-03 0.000E+00

     total cpu time spent up to now is    14070.1 secs

     total energy              =  -21903.75313625 Ry
     Harris-Foulkes estimate   =  -21903.75839645 Ry
     estimated scf accuracy    <       0.03406559 Ry

     iteration # 23     ecut=    50.00 Ry     beta= 0.30
     Davidson diagonalization with overlap
     ethr =  3.23E-06,  avg # of iterations =  5.3

     negative rho (up, down):  1.175E-03 0.000E+00

     total cpu time spent up to now is    14423.0 secs

     total energy              =  -21903.75496775 Ry
     Harris-Foulkes estimate   =  -21903.75698298 Ry
     estimated scf accuracy    <       0.01444367 Ry

     iteration # 24     ecut=    50.00 Ry     beta= 0.30
     Davidson diagonalization with overlap
     ethr =  1.37E-06,  avg # of iterations =  6.4

     negative rho (up, down):  1.329E-03 0.000E+00

     total cpu time spent up to now is    14793.2 secs

     total energy              =  -21903.75579145 Ry
     Harris-Foulkes estimate   =  -21903.75633485 Ry
     estimated scf accuracy    <       0.00698215 Ry

     iteration # 25     ecut=    50.00 Ry     beta= 0.30
     Davidson diagonalization with overlap
     ethr =  6.61E-07,  avg # of iterations =  2.5

     negative rho (up, down):  1.488E-03 0.000E+00

     total cpu time spent up to now is    15035.0 secs

     total energy              =  -21903.75594346 Ry
     Harris-Foulkes estimate   =  -21903.75630563 Ry
     estimated scf accuracy    <       0.00488452 Ry

     iteration # 26     ecut=    50.00 Ry     beta= 0.30
     Davidson diagonalization with overlap
     ethr =  4.63E-07,  avg # of iterations =  7.1

     negative rho (up, down):  1.755E-03 0.000E+00

     total cpu time spent up to now is    15419.4 secs

     total energy              =  -21903.75619183 Ry
     Harris-Foulkes estimate   =  -21903.75618345 Ry
     estimated scf accuracy    <       0.00030965 Ry

     iteration # 27     ecut=    50.00 Ry     beta= 0.30
     Davidson diagonalization with overlap
     ethr =  2.93E-08,  avg # of iterations =  7.9

     negative rho (up, down):  2.055E-03 0.000E+00

     total cpu time spent up to now is    15880.8 secs

     total energy              =  -21903.75623290 Ry
     Harris-Foulkes estimate   =  -21903.75622547 Ry
     estimated scf accuracy    <       0.00014571 Ry

     iteration # 28     ecut=    50.00 Ry     beta= 0.30
     Davidson diagonalization with overlap
     ethr =  1.38E-08,  avg # of iterations =  3.0

     negative rho (up, down):  2.248E-03 0.000E+00

     total cpu time spent up to now is    16151.6 secs

     total energy              =  -21903.75624863 Ry
     Harris-Foulkes estimate   =  -21903.75625487 Ry
     estimated scf accuracy    <       0.00017004 Ry

     iteration # 29     ecut=    50.00 Ry     beta= 0.30
     Davidson diagonalization with overlap
     ethr =  1.38E-08,  avg # of iterations =  3.9

     negative rho (up, down):  2.382E-03 0.000E+00

     total cpu time spent up to now is    16438.2 secs

     total energy              =  -21903.75625600 Ry
     Harris-Foulkes estimate   =  -21903.75626309 Ry
     estimated scf accuracy    <       0.00014676 Ry

     iteration # 30     ecut=    50.00 Ry     beta= 0.30
     Davidson diagonalization with overlap
     ethr =  1.38E-08,  avg # of iterations =  3.1

     negative rho (up, down):  2.479E-03 0.000E+00

     total cpu time spent up to now is    16702.5 secs

     total energy              =  -21903.75626168 Ry
     Harris-Foulkes estimate   =  -21903.75626343 Ry
     estimated scf accuracy    <       0.00003590 Ry

     iteration # 31     ecut=    50.00 Ry     beta= 0.30
     Davidson diagonalization with overlap
     ethr =  3.40E-09,  avg # of iterations =  1.1

     negative rho (up, down):  2.542E-03 0.000E+00

     total cpu time spent up to now is    16904.9 secs

     total energy              =  -21903.75626218 Ry
     Harris-Foulkes estimate   =  -21903.75626317 Ry
     estimated scf accuracy    <       0.00000599 Ry

     iteration # 32     ecut=    50.00 Ry     beta= 0.30
     Davidson diagonalization with overlap
     ethr =  5.68E-10,  avg # of iterations =  2.0

     negative rho (up, down):  2.572E-03 0.000E+00

     total cpu time spent up to now is    17134.6 secs

     total energy              =  -21903.75626246 Ry
     Harris-Foulkes estimate   =  -21903.75626291 Ry
     estimated scf accuracy    <       0.00000225 Ry

     iteration # 33     ecut=    50.00 Ry     beta= 0.30
     Davidson diagonalization with overlap
     ethr =  2.13E-10,  avg # of iterations =  2.0

     negative rho (up, down):  2.579E-03 0.000E+00

     total cpu time spent up to now is    17366.1 secs

     total energy              =  -21903.75626260 Ry
     Harris-Foulkes estimate   =  -21903.75626275 Ry
     estimated scf accuracy    <       0.00000074 Ry

     iteration # 34     ecut=    50.00 Ry     beta= 0.30
     Davidson diagonalization with overlap
     ethr =  7.00E-11,  avg # of iterations =  2.0

     negative rho (up, down):  2.594E-03 0.000E+00

     total cpu time spent up to now is    17594.5 secs

     total energy              =  -21903.75626255 Ry
     Harris-Foulkes estimate   =  -21903.75626272 Ry
     estimated scf accuracy    <       0.00000063 Ry

     iteration # 35     ecut=    50.00 Ry     beta= 0.30
     Davidson diagonalization with overlap
     ethr =  5.97E-11,  avg # of iterations =  2.0

     negative rho (up, down):  2.599E-03 0.000E+00

     total cpu time spent up to now is    17828.2 secs

     total energy              =  -21903.75626254 Ry
     Harris-Foulkes estimate   =  -21903.75626261 Ry
     estimated scf accuracy    <       0.00000024 Ry

     iteration # 36     ecut=    50.00 Ry     beta= 0.30
     Davidson diagonalization with overlap
     ethr =  2.29E-11,  avg # of iterations =  1.9

     negative rho (up, down):  2.606E-03 0.000E+00

     total cpu time spent up to now is    18062.7 secs

     total energy              =  -21903.75626249 Ry
     Harris-Foulkes estimate   =  -21903.75626258 Ry
     estimated scf accuracy    <       0.00000038 Ry

     iteration # 37     ecut=    50.00 Ry     beta= 0.30
     Davidson diagonalization with overlap
     ethr =  2.29E-11,  avg # of iterations =  1.7

     negative rho (up, down):  2.614E-03 0.000E+00

     total cpu time spent up to now is    18285.5 secs

     total energy              =  -21903.75626243 Ry
     Harris-Foulkes estimate   =  -21903.75626251 Ry
     estimated scf accuracy    <       0.00000006 Ry

     iteration # 38     ecut=    50.00 Ry     beta= 0.30
     Davidson diagonalization with overlap
     ethr =  5.37E-12,  avg # of iterations =  2.0

     negative rho (up, down):  2.617E-03 0.000E+00

     total cpu time spent up to now is    18523.9 secs

     total energy              =  -21903.75626241 Ry
     Harris-Foulkes estimate   =  -21903.75626244 Ry
     estimated scf accuracy    <       0.00000001 Ry

     iteration # 39     ecut=    50.00 Ry     beta= 0.30
     Davidson diagonalization with overlap
     ethr =  1.10E-12,  avg # of iterations =  2.0

     negative rho (up, down):  2.620E-03 0.000E+00

     total cpu time spent up to now is    18761.0 secs

     End of self-consistent calculation

          k = 0.0000 0.0000 0.0000 ( 61453 PWs)   bands (ev):

  -107.7383-107.7320-107.7271-107.7271-107.7261-107.7260-107.7256-107.7256
  -107.7241-107.7231-107.7231-107.7224-107.7224-107.7218-107.7217-107.7217
  -107.7211-107.7204-107.7182-107.7182-107.7176-107.7159-107.7159-107.7142
  -107.7122-107.7122-107.7122-107.7089-107.7070-107.7070-107.7069-107.7069
  -107.7056-107.7056-107.7046-107.7018-107.5474-107.5447-107.5447-107.5251
  -107.5226-107.5226-107.5096-107.5072-107.5072-107.4724-107.4677-107.4677
  -107.4675-107.4668-107.4668-107.4668-107.4645-107.4645 -65.1878 -65.1775
   -65.1740 -65.1739 -65.1732 -65.1732 -65.1722 -65.1674 -65.1672 -65.1672
   -65.1657 -65.1656 -65.1648 -65.1645 -65.1645 -65.1624 -65.1618 -65.1618
   -65.1614 -65.1605 -65.1564 -65.1563 -65.1545 -65.1530 -65.1526 -65.1526
   -65.1513 -65.1513 -65.1512 -65.1504 -65.1504 -65.1492 -65.1492 -65.1485
   -65.1475 -65.1466 -65.1466 -65.1462 -65.1426 -65.1426 -65.1422 -65.1411
   -65.1407 -65.1407 -65.1401 -65.1401 -65.1377 -65.1365 -65.1365 -65.1345
   -65.1339 -65.1337 -65.1336 -65.1335 -65.1335 -65.1327 -65.1278 -65.1265
   -65.1265 -65.1257 -65.1257 -65.1246 -65.1245 -65.1245 -65.1243 -65.1238
   -65.1238 -65.1220 -65.1219 -65.1216 -65.1216 -65.1208 -65.1208 -65.1187
   -65.1185 -65.1158 -65.1157 -65.1157 -65.1157 -65.1151 -65.1151 -65.1137
   -65.1137 -65.1134 -65.1126 -65.1126 -65.1123 -65.1099 -65.1091 -65.1091
   -65.1091 -65.1078 -65.1078 -65.1076 -65.1063 -65.1063 -65.1013 -65.1013
   -65.1009 -65.1003 -65.1003 -65.0998 -65.0993 -65.0993 -65.0961 -65.0961
   -65.0893 -65.0893 -64.9959 -64.9959 -64.9957 -64.9854 -64.9799 -64.9799
   -64.9764 -64.9736 -64.9736 -64.9612 -64.9517 -64.9439 -64.9439 -64.9425
   -64.9425 -64.9332 -64.9330 -64.9305 -64.9305 -64.9272 -64.9268 -64.9268
   -64.9266 -64.9262 -64.9262 -64.9242 -64.9242 -64.9240 -64.9240 -64.9239
   -64.9233 -64.9053 -64.9030 -64.9030 -64.8915 -64.8915 -64.8914 -64.8913
   -64.8913 -64.8905 -64.8880 -64.8858 -64.8858 -64.8790 -64.8790 -64.8442
   -64.8398 -64.8398 -64.8397 -64.8389 -64.8389 -64.8388 -64.8367 -64.8367
   -13.0161 -10.2567 -10.2565  -6.6484  -6.6479  -4.7192  -3.9993  -3.3851
    -3.1039  -2.7416  -2.4518  -2.0793  -2.0792  -1.4195  -1.0513  -1.0339
    -1.0339  -1.0331  -1.0331  -1.0330  -0.9603  -0.6341  -0.6341  -0.6316
    -0.6316  -0.6306  -0.6189  -0.3832  -0.1610  -0.1609  -0.1390  -0.1390
    -0.1346  -0.1320  -0.1117  -0.1116  -0.1112   0.3083   0.3083   0.3185
     0.3206   0.3206   0.3270   0.6565   0.6565   0.6681   0.6685   0.6685
     0.6735   0.7939   0.7939   0.7963   0.7973   0.7973   0.7990   0.8429
     0.8429   0.8454   0.8454   0.8458   0.8473   0.8768   0.8768   0.8907
     0.8907   0.8977   0.8979   0.9937   0.9940   1.0055   1.0055   1.0110
     1.0110   1.0169   1.0201   1.0201   1.0224   1.0354   1.0354   1.0367
     1.0368   1.0727   1.0727   1.1293   1.1293   1.2056   1.2056   1.2264
     1.2264   1.2304   1.2316   1.2316   1.2346   1.2738   1.2738   1.4167
     1.4167   1.4674   1.4674   1.4692   1.4709   1.5531   1.5532   1.6060
     1.6060   1.6142   1.6142   1.6243   1.6243   1.6254   1.6271   1.6611
     1.6613   1.6684   1.6689   1.6689   1.6848   1.7379   1.7379   1.7390
     1.7396   1.7505   1.7505   1.7520   1.7520   1.7805   1.7805   1.8057
     1.8170   1.8170   1.8221   1.8223   1.8223   1.8256   1.8421   1.8421
     1.8664   1.8664   1.8759   1.8770   1.8770   1.8776   1.8840   1.8841
     1.8981   1.8982   1.8983   1.8996   1.9001   1.9001   1.9059   1.9059
     1.9160   1.9872   1.9872   2.0008   2.0013   2.0201   2.0201   2.0209
     2.0260   2.0449   2.0449   2.0460   2.0460   2.0711   2.0711   2.0778
     2.0781   2.0974   2.0974   2.0976   2.0997   2.0999   2.0999   2.1005
     2.1005   2.2772   2.2772   2.2787   2.2852   2.3254   2.3254   2.3521
     2.3531   2.3531   2.3557   2.3557   2.3560   2.4004   2.4004   2.4065
     2.4101   2.4362   2.4362   2.4375   2.4375   2.4552   2.4552   2.4617
     2.4618   2.5195   2.5275   2.5275   2.5494   2.5494   2.5530   2.5543
     2.5543   2.5656   2.5690   2.5691   2.5792   2.5792   2.5827   2.5856
     2.5856   2.5861   2.5861   2.5868   2.5965   2.5965   2.6587   2.6587
     2.7257   2.7263   2.7263   2.7277   2.7279   2.7279   2.7795   2.7807
     2.7807   2.7825   2.7877   2.7877   2.7878   2.7886   2.7891   2.7891
     2.7938   2.7938   2.8418   2.8418   2.8526   2.8542   2.8542   2.8556
     2.8556   2.8563   2.8668   2.8669   2.8669   2.8679   2.8683   2.8683
     2.8878   2.8880   2.8880   2.8884   2.8890   2.8890   2.9029   2.9029
     2.9349   2.9349   2.9375   2.9425   2.9425   2.9469   2.9469   2.9494
     2.9635   2.9638   2.9836   2.9838   2.9838   2.9849   2.9849   2.9856
     3.0079   3.0079   3.0094   3.0094   3.0209   3.0209   3.0381   3.0390
     3.0456   3.0458   3.0458   3.0486   3.0486   3.0495   3.0711   3.0711
     3.0728   3.0794   3.0794   3.0855   3.1283   3.1284   3.1284   3.1309
     3.1309   3.1310   3.1416   3.1416   3.9645   4.0433   4.0433   4.0513
     4.1126   4.1305   4.1305   4.6126   5.4485   5.4486   5.4770   5.5333
     5.5772   5.5773   6.8251   6.8253   6.9956   7.2284   7.3349   7.3913
     7.3914   7.4464   7.4464   7.9256   7.9256   7.9264   7.9268   7.9433
     7.9433   8.1897   8.3157   8.3157   8.3406   8.3406   8.4453   8.7149
     8.7212   8.8091   8.8930   8.8930   8.9747   8.9752   9.0140   9.1932
     9.1932   9.3754   9.4317   9.6053   9.6053   9.6198   9.6198   9.8733
     9.8735   9.9027   9.9873   9.9915  10.5505  10.5774  10.7100  10.7100
    10.7850  10.7850  10.8566  10.8567  10.9739  10.9739  11.0261  11.0262
    11.0479  11.1542  11.1944  11.3527  11.3527  11.4278  11.4278  11.4529
    11.5434  11.6102  11.6102  11.7737  11.8357  11.8358  11.8918  11.8918
    11.9539  11.9896  11.9897  12.0141  12.0141  12.0495  12.1383  12.2321
    12.2321  12.2806  12.3105  12.3828  12.3828  12.5633  12.5633  12.7871
    12.8724  12.8812  12.8813  13.0383  13.0383  13.0644  13.0690  13.1087
    13.1942  13.2063

          k = 0.0000 0.2887 0.0000 ( 61417 PWs)   bands (ev):

  -107.7382-107.7316-107.7282-107.7274-107.7264-107.7257-107.7250-107.7249
  -107.7240-107.7233-107.7233-107.7224-107.7224-107.7218-107.7218-107.7214
  -107.7211-107.7203-107.7188-107.7183-107.7175-107.7158-107.7157-107.7141
  -107.7122-107.7122-107.7119-107.7092-107.7077-107.7075-107.7065-107.7062
  -107.7056-107.7053-107.7048-107.7018-107.5474-107.5447-107.5447-107.5252
  -107.5226-107.5225-107.5096-107.5072-107.5071-107.4719-107.4690-107.4680
  -107.4678-107.4665-107.4663-107.4658-107.4647-107.4647 -65.1865 -65.1787
   -65.1764 -65.1754 -65.1746 -65.1741 -65.1733 -65.1727 -65.1706 -65.1702
   -65.1688 -65.1686 -65.1675 -65.1671 -65.1632 -65.1626 -65.1615 -65.1600
   -65.1588 -65.1585 -65.1575 -65.1572 -65.1571 -65.1563 -65.1550 -65.1549
   -65.1542 -65.1531 -65.1499 -65.1496 -65.1479 -65.1469 -65.1469 -65.1460
   -65.1457 -65.1446 -65.1443 -65.1432 -65.1419 -65.1417 -65.1398 -65.1396
   -65.1378 -65.1363 -65.1362 -65.1356 -65.1350 -65.1350 -65.1338 -65.1333
   -65.1322 -65.1317 -65.1310 -65.1305 -65.1300 -65.1289 -65.1284 -65.1283
   -65.1269 -65.1265 -65.1260 -65.1259 -65.1254 -65.1249 -65.1240 -65.1229
   -65.1218 -65.1211 -65.1210 -65.1201 -65.1195 -65.1192 -65.1187 -65.1183
   -65.1180 -65.1174 -65.1172 -65.1165 -65.1161 -65.1158 -65.1157 -65.1148
   -65.1144 -65.1134 -65.1130 -65.1120 -65.1118 -65.1114 -65.1109 -65.1105
   -65.1103 -65.1092 -65.1078 -65.1074 -65.1073 -65.1044 -65.1044 -65.1042
   -65.1034 -65.1029 -65.1012 -65.1006 -65.1004 -65.0996 -65.0973 -65.0965
   -65.0934 -65.0903 -65.0002 -64.9979 -64.9974 -64.9870 -64.9783 -64.9780
   -64.9749 -64.9701 -64.9694 -64.9560 -64.9539 -64.9460 -64.9446 -64.9431
   -64.9406 -64.9381 -64.9341 -64.9330 -64.9327 -64.9324 -64.9314 -64.9312
   -64.9306 -64.9305 -64.9273 -64.9249 -64.9195 -64.9193 -64.9138 -64.9135
   -64.9108 -64.9053 -64.9030 -64.9030 -64.8954 -64.8952 -64.8942 -64.8913
   -64.8910 -64.8880 -64.8872 -64.8858 -64.8857 -64.8833 -64.8801 -64.8438
   -64.8410 -64.8400 -64.8398 -64.8386 -64.8385 -64.8380 -64.8369 -64.8368
   -13.0153 -10.2602 -10.2572  -6.6511  -6.6437  -4.6920  -3.7861  -3.1769
    -3.0762  -2.7453  -2.2599  -2.1878  -2.1197  -2.0873  -1.6438  -1.4752
    -1.4714  -1.2833  -1.0078  -0.9913  -0.9207  -0.7912  -0.4155  -0.4148
    -0.3343  -0.3285  -0.2323  -0.2044  -0.1781  -0.1501  -0.1304  -0.1216
     0.0039   0.0374   0.0443   0.1404   0.1431   0.1438   0.3101   0.3247
     0.3476   0.4130   0.4140   0.5909   0.6042   0.6371   0.6372   0.6541
     0.6734   0.6734   0.6911   0.6933   0.7322   0.7413   0.7435   0.7451
     0.7551   0.7559   0.7980   0.7981   0.8324   0.8328   0.8623   0.8632
     0.8641   0.9136   0.9169   0.9301   0.9301   0.9492   0.9504   0.9622
     0.9626   0.9877   0.9890   1.0388   1.1041   1.1056   1.1058   1.1327
     1.1332   1.1430   1.1470   1.1761   1.1770   1.2171   1.2196   1.2206
     1.2851   1.2893   1.2901   1.3081   1.3258   1.3313   1.3733   1.3757
     1.3787   1.4009   1.4040   1.4182   1.4379   1.4680   1.4913   1.4959
     1.4974   1.5149   1.5217   1.5406   1.5641   1.5732   1.5871   1.5931
     1.6001   1.6012   1.6392   1.6525   1.6744   1.7032   1.7117   1.7192
     1.7201   1.7326   1.7357   1.7411   1.7704   1.7787   1.7798   1.7918
     1.7933   1.8038   1.8089   1.8138   1.8266   1.8322   1.8357   1.8505
     1.8623   1.8684   1.8692   1.8748   1.8801   1.8889   1.8938   1.8989
     1.9009   1.9056   1.9092   1.9093   1.9310   1.9355   1.9404   1.9502
     1.9527   1.9679   1.9691   1.9795   1.9842   1.9870   1.9882   2.0114
     2.0237   2.0258   2.0383   2.0477   2.0480   2.0506   2.0554   2.0615
     2.0779   2.0819   2.1058   2.1148   2.1223   2.1232   2.1329   2.1337
     2.1477   2.1616   2.1620   2.1637   2.1890   2.1920   2.1942   2.2128
     2.2366   2.2388   2.2693   2.2825   2.2860   2.2874   2.2926   2.2955
     2.3455   2.3662   2.3885   2.3892   2.3950   2.3974   2.4129   2.4140
     2.4437   2.4438   2.4551   2.4564   2.4589   2.4621   2.4801   2.4827
     2.5220   2.5271   2.5319   2.5331   2.5397   2.5640   2.5676   2.5688
     2.5717   2.5741   2.6039   2.6177   2.6204   2.6224   2.6266   2.6393
     2.6465   2.6471   2.6643   2.6666   2.6706   2.6709   2.6815   2.6856
     2.7005   2.7082   2.7542   2.7610   2.7636   2.7886   2.7916   2.8025
     2.8064   2.8076   2.8084   2.8111   2.8240   2.8277   2.8287   2.8413
     2.8428   2.8480   2.8500   2.8711   2.8937   2.8966   2.8969   2.8985
     2.9098   2.9125   2.9263   2.9303   2.9381   2.9396   2.9853   2.9853
     2.9879   2.9881   2.9899   3.0017   3.0083   3.0096   3.0116   3.0165
     3.0200   3.0207   3.0277   3.0279   3.0338   3.0372   3.0449   3.0479
     3.0660   3.0758   3.0763   3.0777   3.0794   3.0831   3.0833   3.0845
     3.1072   3.1153   3.1279   3.1294   3.1321   3.1375   3.1466   3.1507
     3.1944   3.2400   3.2952   3.3628   3.3909   3.3921   3.4851   3.5513
     3.5519   3.8041   3.8474   3.8563   3.8639   3.9055   4.1656   4.4073
     4.5701   4.8218   4.8311   5.0581   5.1498   5.1705   5.2039   5.9204
     5.9217   6.1417   6.2193   6.2938   6.3144   6.3146   6.5214   6.7372
     6.8300   6.9233   6.9851   7.0982   7.1562   7.3141   7.5397   7.8168
     7.8460   7.8624   8.0184   8.1143   8.2897   8.3117   8.3267   8.4388
     8.4968   8.7336   8.7878   8.7909   8.9258   8.9836   9.3114   9.3326
     9.3390   9.4669   9.5686   9.7150   9.8178   9.8376   9.9140   9.9862
    10.0397  10.0701  10.1087  10.1981  10.2741  10.4103  10.4884  10.4939
    10.5639  10.5711  10.6172  10.7261  10.7301  10.8081  10.8334  10.8792
    10.9536  11.0109  11.0224  11.0691  11.1195  11.2829  11.4637  11.4769
    11.5153  11.5459  11.6059  11.6887  11.7584  11.7963  11.8870  11.9915
    12.0750  12.1782  12.2389  12.3230  12.3895  12.4198  12.4952  12.5052
    12.5631  12.6233  12.7034  12.7572  12.8280  12.8393  12.9115  12.9168
    12.9863  13.0708  13.1384  13.1574  13.2133  13.2710  13.3250  13.4125
    13.4214  13.4675

          k = 0.0000-0.5774 0.0000 ( 61408 PWs)   bands (ev):

  -107.7382-107.7309-107.7294-107.7276-107.7265-107.7253-107.7246-107.7245
  -107.7242-107.7231-107.7230-107.7229-107.7226-107.7219-107.7216-107.7211
  -107.7209-107.7202-107.7195-107.7183-107.7176-107.7157-107.7155-107.7141
  -107.7123-107.7121-107.7116-107.7096-107.7080-107.7077-107.7063-107.7055
  -107.7054-107.7054-107.7051-107.7018-107.5473-107.5447-107.5447-107.5252
  -107.5226-107.5225-107.5097-107.5072-107.5071-107.4709-107.4704-107.4682
  -107.4680-107.4659-107.4658-107.4655-107.4651-107.4650 -65.1839 -65.1816
   -65.1793 -65.1781 -65.1757 -65.1744 -65.1734 -65.1729 -65.1717 -65.1717
   -65.1711 -65.1708 -65.1704 -65.1694 -65.1667 -65.1627 -65.1603 -65.1601
   -65.1599 -65.1593 -65.1587 -65.1583 -65.1581 -65.1579 -65.1559 -65.1551
   -65.1546 -65.1535 -65.1491 -65.1477 -65.1471 -65.1469 -65.1463 -65.1454
   -65.1445 -65.1415 -65.1408 -65.1397 -65.1379 -65.1376 -65.1375 -65.1371
   -65.1365 -65.1354 -65.1348 -65.1347 -65.1341 -65.1328 -65.1326 -65.1314
   -65.1303 -65.1300 -65.1298 -65.1294 -65.1291 -65.1289 -65.1273 -65.1270
   -65.1255 -65.1245 -65.1240 -65.1237 -65.1231 -65.1227 -65.1226 -65.1225
   -65.1224 -65.1221 -65.1217 -65.1205 -65.1197 -65.1193 -65.1187 -65.1182
   -65.1180 -65.1175 -65.1165 -65.1157 -65.1153 -65.1152 -65.1151 -65.1143
   -65.1141 -65.1137 -65.1126 -65.1125 -65.1123 -65.1117 -65.1116 -65.1114
   -65.1105 -65.1102 -65.1098 -65.1079 -65.1075 -65.1072 -65.1069 -65.1068
   -65.1045 -65.1041 -65.1038 -65.1028 -65.1020 -65.1009 -65.1006 -65.0995
   -65.0937 -65.0923 -65.0031 -64.9995 -64.9988 -64.9885 -64.9799 -64.9757
   -64.9726 -64.9652 -64.9635 -64.9567 -64.9530 -64.9484 -64.9454 -64.9423
   -64.9419 -64.9381 -64.9357 -64.9348 -64.9345 -64.9343 -64.9340 -64.9330
   -64.9320 -64.9306 -64.9305 -64.9255 -64.9159 -64.9156 -64.9053 -64.9036
   -64.9034 -64.9033 -64.9030 -64.9030 -64.9029 -64.8953 -64.8952 -64.8947
   -64.8923 -64.8920 -64.8880 -64.8858 -64.8857 -64.8834 -64.8829 -64.8428
   -64.8423 -64.8402 -64.8400 -64.8381 -64.8380 -64.8377 -64.8371 -64.8370
   -13.0145 -10.2637 -10.2580  -6.6544  -6.6391  -4.6638  -3.1614  -3.1607
    -3.0479  -2.7491  -2.5741  -2.5703  -2.1808  -2.0953  -1.7147  -1.6522
    -1.6279  -1.6269  -1.1718  -1.1209  -1.0442  -0.6012  -0.5185  -0.4054
    -0.3841  -0.2159  -0.1406  -0.0146   0.1555   0.1696   0.1886   0.1890
     0.1897   0.1908   0.1933   0.2749   0.3347   0.3530   0.3552   0.3667
     0.3682   0.3868   0.3870   0.3879   0.3881   0.4407   0.4409   0.4420
     0.4421   0.5709   0.6027   0.6028   0.6062   0.6063   0.6299   0.6843
     0.7846   0.7847   0.7860   0.7863   0.7924   0.8115   0.8232   0.8316
     0.8327   0.8365   0.8367   0.9574   0.9579   0.9595   0.9597   0.9791
     0.9828   1.0620   1.0685   1.0703   1.0765   1.0769   1.1192   1.1198
     1.1615   1.1623   1.2182   1.2188   1.2276   1.2280   1.2878   1.2919
     1.3117   1.3149   1.3262   1.3293   1.3393   1.3411   1.3574   1.3644
     1.3661   1.3986   1.4315   1.4561   1.4652   1.4745   1.4813   1.4920
     1.5041   1.5086   1.5170   1.5204   1.5205   1.5388   1.5500   1.5777
     1.5785   1.5790   1.5809   1.5899   1.6071   1.6387   1.6457   1.6551
     1.6564   1.6585   1.6587   1.6619   1.6650   1.6954   1.7116   1.7496
     1.7537   1.7556   1.7650   1.7691   1.7944   1.8043   1.8051   1.8064
     1.8071   1.8116   1.8187   1.8649   1.8687   1.8713   1.8721   1.8832
     1.8853   1.8862   1.9166   1.9194   1.9225   1.9288   1.9455   1.9471
     1.9505   1.9524   1.9533   1.9734   1.9745   1.9792   1.9848   2.0041
     2.0077   2.0315   2.0437   2.0451   2.0981   2.0997   2.1096   2.1111
     2.1114   2.1121   2.1145   2.1147   2.1187   2.1275   2.1321   2.1334
     2.1420   2.1533   2.1540   2.1599   2.1601   2.1649   2.1657   2.2349
     2.2392   2.2420   2.2511   2.3115   2.3117   2.3180   2.3181   2.3198
     2.3236   2.3249   2.3349   2.3376   2.3410   2.3526   2.3655   2.3833
     2.3951   2.3964   2.3990   2.4030   2.4178   2.4239   2.4244   2.4255
     2.4273   2.4387   2.4462   2.4488   2.4516   2.4634   2.4638   2.5480
     2.5544   2.5787   2.5804   2.6053   2.6060   2.6085   2.6097   2.6368
     2.6375   2.6465   2.6617   2.6741   2.6798   2.6830   2.6861   2.6994
     2.7042   2.7196   2.7209   2.7223   2.7236   2.7354   2.7386   2.7517
     2.7552   2.7585   2.7675   2.8090   2.8091   2.8128   2.8135   2.8242
     2.8246   2.8413   2.8454   2.8711   2.8734   2.8851   2.8886   2.9082
     2.9084   2.9287   2.9351   2.9443   2.9531   2.9886   2.9899   3.0102
     3.0137   3.0147   3.0178   3.0368   3.0451   3.0455   3.0473   3.0482
     3.0503   3.0549   3.0753   3.0766   3.0772   3.0772   3.0779   3.0926
     3.0946   3.0975   3.1098   3.1146   3.1266   3.1307   3.1386   3.1395
     3.1406   3.1506   3.1560   3.1760   3.1819   3.1940   3.1947   3.1970
     3.1971   3.2709   3.3198   3.8188   3.8633   3.8726   3.8943   4.3531
     4.4052   4.4059   4.4061   4.4067   4.6669   4.6710   4.6729   4.6739
     4.9937   5.0188   5.0679   5.1513   5.2027   5.2151   5.2328   5.2489
     5.2563   5.5088   5.8438   6.0938   6.1104   6.1142   6.1758   6.2085
     6.2091   6.2464   6.2687   6.6388   6.7620   6.9426   7.0538   7.5061
     7.5170   7.5233   7.7202   7.8434   7.9805   8.2849   8.3834   8.4257
     8.6385   8.6478   8.6531   8.6944   8.9268   8.9742   9.0086   9.2026
     9.2859   9.2962   9.3067   9.3162   9.4478   9.5768   9.6293   9.7650
     9.8294   9.9355   9.9369   9.9704  10.0122  10.2628  10.3086  10.3951
    10.4213  10.4841  10.5742  10.5994  10.6220  10.8006  10.8722  11.0227
    11.0375  11.1214  11.2597  11.2882  11.3129  11.4156  11.4720  11.4965
    11.6354  11.6920  11.7668  12.0255  12.1423  12.1680  12.3210  12.3417
    12.3484  12.3675  12.4164  12.6280  12.6943  12.8103  12.8633  12.9394
    12.9982  13.0345  13.1023  13.1355  13.1991  13.2840  13.2881  13.2954
    13.3517  13.3555  13.3641  13.4083  13.6061  13.6418  13.7025  13.7317
    13.8235  13.8281

          k = 0.2500-0.7217 0.0000 ( 61343 PWs)   bands (ev):

  -107.7382-107.7309-107.7290-107.7284-107.7258-107.7253-107.7248-107.7242
  -107.7242-107.7237-107.7231-107.7227-107.7223-107.7218-107.7216-107.7212
  -107.7209-107.7202-107.7193-107.7187-107.7174-107.7156-107.7155-107.7141
  -107.7123-107.7121-107.7116-107.7094-107.7085-107.7073-107.7061-107.7058
  -107.7055-107.7053-107.7050-107.7018-107.5473-107.5447-107.5447-107.5252
  -107.5226-107.5225-107.5097-107.5072-107.5071-107.4711-107.4697-107.4694
  -107.4669-107.4664-107.4658-107.4656-107.4651-107.4648 -65.1842 -65.1802
   -65.1781 -65.1778 -65.1766 -65.1765 -65.1756 -65.1743 -65.1732 -65.1710
   -65.1707 -65.1698 -65.1670 -65.1660 -65.1650 -65.1641 -65.1641 -65.1620
   -65.1611 -65.1586 -65.1582 -65.1578 -65.1572 -65.1563 -65.1555 -65.1552
   -65.1540 -65.1533 -65.1513 -65.1502 -65.1480 -65.1457 -65.1453 -65.1444
   -65.1425 -65.1420 -65.1415 -65.1405 -65.1403 -65.1384 -65.1375 -65.1369
   -65.1367 -65.1357 -65.1349 -65.1345 -65.1327 -65.1316 -65.1312 -65.1306
   -65.1303 -65.1302 -65.1299 -65.1289 -65.1285 -65.1278 -65.1273 -65.1267
   -65.1261 -65.1253 -65.1246 -65.1245 -65.1242 -65.1235 -65.1224 -65.1218
   -65.1214 -65.1208 -65.1203 -65.1201 -65.1198 -65.1193 -65.1186 -65.1184
   -65.1183 -65.1177 -65.1170 -65.1165 -65.1162 -65.1151 -65.1151 -65.1146
   -65.1138 -65.1137 -65.1132 -65.1128 -65.1125 -65.1124 -65.1122 -65.1118
   -65.1106 -65.1095 -65.1093 -65.1080 -65.1073 -65.1069 -65.1064 -65.1062
   -65.1056 -65.1051 -65.1036 -65.1028 -65.1023 -65.1015 -65.0983 -65.0965
   -65.0961 -65.0924 -65.0022 -65.0008 -64.9990 -64.9870 -64.9802 -64.9773
   -64.9703 -64.9676 -64.9635 -64.9563 -64.9513 -64.9474 -64.9455 -64.9441
   -64.9402 -64.9399 -64.9392 -64.9372 -64.9355 -64.9329 -64.9307 -64.9306
   -64.9306 -64.9299 -64.9268 -64.9265 -64.9263 -64.9072 -64.9053 -64.9052
   -64.9043 -64.9042 -64.9030 -64.9030 -64.8987 -64.8984 -64.8977 -64.8974
   -64.8910 -64.8880 -64.8865 -64.8864 -64.8858 -64.8857 -64.8824 -64.8430
   -64.8417 -64.8413 -64.8391 -64.8385 -64.8380 -64.8378 -64.8371 -64.8369
   -13.0145 -10.2623 -10.2594  -6.6505  -6.6429  -4.6641  -3.3664  -3.0478
    -2.7697  -2.7489  -2.5617  -2.5601  -2.1683  -2.1251  -1.9989  -1.9803
    -1.8594  -1.2605  -1.1340  -0.9994  -0.6819  -0.5490  -0.5472  -0.2290
    -0.2028  -0.1974  -0.1608  -0.1437  -0.1310   0.0426   0.0427   0.0532
     0.2115   0.2156   0.2373   0.2378   0.2532   0.3036   0.3134   0.3140
     0.3327   0.4316   0.4333   0.4349   0.4359   0.4977   0.5108   0.5701
     0.5752   0.5852   0.5966   0.6269   0.6271   0.6284   0.6457   0.6476
     0.7002   0.7035   0.7398   0.7420   0.7702   0.7704   0.8003   0.8056
     0.8083   0.8654   0.8670   0.8979   0.9180   0.9361   0.9370   1.0002
     1.0114   1.0609   1.0799   1.0821   1.1007   1.1038   1.1633   1.1687
     1.1762   1.1928   1.1936   1.1992   1.2435   1.2662   1.2697   1.3071
     1.3128   1.3240   1.3333   1.3395   1.3449   1.3636   1.3646   1.3997
     1.4130   1.4215   1.4259   1.4295   1.4387   1.4445   1.4612   1.4631
     1.4659   1.4832   1.4885   1.5116   1.5180   1.5240   1.5380   1.5675
     1.5702   1.5767   1.6159   1.6204   1.6211   1.6312   1.6430   1.6517
     1.6690   1.6774   1.6969   1.7123   1.7133   1.7211   1.7282   1.7307
     1.7494   1.7656   1.7693   1.7727   1.7730   1.8094   1.8156   1.8201
     1.8207   1.8268   1.8363   1.8470   1.8495   1.8657   1.8672   1.8781
     1.8803   1.9011   1.9112   1.9260   1.9337   1.9453   1.9509   1.9569
     1.9578   1.9668   1.9700   1.9771   1.9799   1.9803   1.9919   1.9938
     2.0006   2.0114   2.0169   2.0247   2.0458   2.0475   2.0589   2.0640
     2.0800   2.0815   2.0830   2.0858   2.0870   2.0915   2.0932   2.0980
     2.0983   2.1073   2.1621   2.1630   2.2206   2.2258   2.2273   2.2313
     2.2353   2.2394   2.2572   2.2591   2.2829   2.2904   2.2957   2.3073
     2.3242   2.3265   2.3631   2.3645   2.3685   2.3962   2.3973   2.3986
     2.3992   2.3999   2.4035   2.4055   2.4086   2.4184   2.4360   2.4386
     2.4721   2.4773   2.4860   2.4862   2.4930   2.5000   2.5094   2.5304
     2.5356   2.5411   2.5519   2.5676   2.5722   2.5901   2.6026   2.6034
     2.6149   2.6193   2.6440   2.6501   2.6560   2.6678   2.6879   2.6922
     2.7088   2.7130   2.7144   2.7321   2.7378   2.7535   2.7598   2.7626
     2.7647   2.7699   2.7721   2.7760   2.7834   2.7908   2.8071   2.8251
     2.8500   2.8528   2.8530   2.8656   2.9028   2.9046   2.9181   2.9263
     2.9490   2.9620   2.9656   2.9713   2.9729   2.9761   2.9839   3.0146
     3.0181   3.0186   3.0235   3.0267   3.0347   3.0379   3.0403   3.0414
     3.0469   3.0481   3.0500   3.0516   3.0558   3.0670   3.0697   3.0807
     3.0823   3.0935   3.0941   3.1028   3.1087   3.1208   3.1276   3.1351
     3.1363   3.1526   3.1724   3.1754   3.1944   3.2144   3.2158   3.3786
     3.3975   3.4830   3.4835   3.5792   3.5819   3.7101   3.9024   3.9130
     4.2954   4.3334   4.3896   4.3920   4.4083   4.6653   4.7596   4.7877
     4.7964   4.7979   4.9768   5.2322   5.2618   5.2663   5.7187   5.7453
     5.7851   5.9114   5.9866   6.0049   6.0129   6.1525   6.1652   6.2251
     6.3169   6.6484   6.7088   6.7399   6.9015   6.9700   7.0646   7.0817
     7.1314   7.1885   7.2310   7.4659   7.6818   7.7335   7.9871   8.0202
     8.4565   8.5713   8.5765   8.6793   8.7524   8.9103   9.1563   9.1793
     9.2501   9.3465   9.3822   9.5125   9.5472   9.6151   9.7352   9.7687
     9.8196  10.0011  10.0459  10.1365  10.1946  10.3924  10.4188  10.4950
    10.5401  10.6459  10.8041  10.8896  10.9445  11.0068  11.1049  11.2020
    11.2100  11.2757  11.4443  11.5551  11.5669  11.6294  11.6332  11.7249
    11.7788  11.8789  11.9157  11.9573  11.9753  12.0852  12.1280  12.2051
    12.3094  12.3940  12.4791  12.4947  12.5783  12.6139  12.6571  12.7028
    12.7289  12.8092  12.8254  12.8770  12.9561  13.0867  13.1520  13.1841
    13.3205  13.3446  13.3899  13.4356  13.5082  13.5692  13.6118  13.6697
    13.7197  13.7397

          k =-0.2500 0.1443 0.0000 ( 61417 PWs)   bands (ev):

  -107.7382-107.7316-107.7282-107.7274-107.7263-107.7257-107.7250-107.7249
  -107.7240-107.7233-107.7232-107.7224-107.7224-107.7218-107.7218-107.7214
  -107.7211-107.7203-107.7188-107.7183-107.7175-107.7158-107.7157-107.7141
  -107.7122-107.7122-107.7119-107.7092-107.7077-107.7075-107.7065-107.7062
  -107.7056-107.7053-107.7048-107.7018-107.5474-107.5447-107.5447-107.5252
  -107.5226-107.5225-107.5096-107.5072-107.5071-107.4719-107.4690-107.4680
  -107.4678-107.4665-107.4663-107.4658-107.4647-107.4647 -65.1865 -65.1787
   -65.1764 -65.1754 -65.1746 -65.1741 -65.1733 -65.1726 -65.1706 -65.1702
   -65.1688 -65.1686 -65.1675 -65.1671 -65.1632 -65.1626 -65.1615 -65.1600
   -65.1588 -65.1585 -65.1575 -65.1572 -65.1571 -65.1563 -65.1550 -65.1549
   -65.1542 -65.1531 -65.1499 -65.1496 -65.1479 -65.1469 -65.1469 -65.1460
   -65.1457 -65.1446 -65.1443 -65.1432 -65.1419 -65.1417 -65.1398 -65.1396
   -65.1378 -65.1363 -65.1362 -65.1356 -65.1350 -65.1350 -65.1338 -65.1333
   -65.1322 -65.1317 -65.1310 -65.1305 -65.1300 -65.1289 -65.1284 -65.1283
   -65.1269 -65.1265 -65.1260 -65.1259 -65.1254 -65.1249 -65.1240 -65.1229
   -65.1218 -65.1211 -65.1210 -65.1201 -65.1195 -65.1192 -65.1187 -65.1183
   -65.1180 -65.1174 -65.1172 -65.1165 -65.1161 -65.1158 -65.1157 -65.1148
   -65.1144 -65.1134 -65.1130 -65.1120 -65.1118 -65.1114 -65.1109 -65.1105
   -65.1103 -65.1092 -65.1078 -65.1074 -65.1073 -65.1044 -65.1044 -65.1042
   -65.1034 -65.1029 -65.1012 -65.1006 -65.1004 -65.0996 -65.0972 -65.0965
   -65.0934 -65.0903 -65.0002 -64.9979 -64.9974 -64.9870 -64.9783 -64.9780
   -64.9749 -64.9701 -64.9694 -64.9560 -64.9539 -64.9460 -64.9446 -64.9431
   -64.9406 -64.9381 -64.9341 -64.9330 -64.9327 -64.9324 -64.9314 -64.9312
   -64.9305 -64.9305 -64.9273 -64.9249 -64.9195 -64.9193 -64.9138 -64.9135
   -64.9108 -64.9053 -64.9030 -64.9030 -64.8954 -64.8952 -64.8942 -64.8913
   -64.8910 -64.8880 -64.8872 -64.8858 -64.8857 -64.8833 -64.8801 -64.8438
   -64.8410 -64.8400 -64.8398 -64.8386 -64.8385 -64.8380 -64.8369 -64.8368
   -13.0153 -10.2600 -10.2574  -6.6516  -6.6433  -4.6920  -3.7861  -3.1769
    -3.0762  -2.7453  -2.2599  -2.1878  -2.1197  -2.0874  -1.6438  -1.4752
    -1.4714  -1.2833  -1.0078  -0.9913  -0.9207  -0.7912  -0.4155  -0.4148
    -0.3343  -0.3285  -0.2323  -0.2044  -0.1779  -0.1502  -0.1304  -0.1217
     0.0039   0.0374   0.0443   0.1404   0.1431   0.1438   0.3101   0.3247
     0.3476   0.4130   0.4140   0.5909   0.6042   0.6371   0.6372   0.6541
     0.6734   0.6734   0.6911   0.6933   0.7322   0.7413   0.7435   0.7451
     0.7551   0.7560   0.7980   0.7981   0.8324   0.8328   0.8623   0.8632
     0.8641   0.9136   0.9169   0.9301   0.9301   0.9492   0.9504   0.9622
     0.9626   0.9877   0.9890   1.0388   1.1041   1.1056   1.1058   1.1327
     1.1332   1.1430   1.1470   1.1761   1.1770   1.2171   1.2196   1.2206
     1.2851   1.2893   1.2901   1.3081   1.3258   1.3313   1.3733   1.3757
     1.3787   1.4009   1.4040   1.4182   1.4379   1.4680   1.4913   1.4960
     1.4974   1.5149   1.5217   1.5406   1.5641   1.5732   1.5871   1.5932
     1.6001   1.6012   1.6392   1.6524   1.6744   1.7032   1.7117   1.7192
     1.7201   1.7326   1.7357   1.7411   1.7704   1.7787   1.7798   1.7918
     1.7933   1.8038   1.8089   1.8138   1.8266   1.8322   1.8357   1.8505
     1.8623   1.8684   1.8692   1.8748   1.8801   1.8889   1.8938   1.8989
     1.9009   1.9056   1.9092   1.9093   1.9310   1.9355   1.9404   1.9502
     1.9527   1.9679   1.9691   1.9795   1.9842   1.9869   1.9882   2.0114
     2.0237   2.0258   2.0383   2.0477   2.0480   2.0506   2.0554   2.0615
     2.0779   2.0819   2.1058   2.1148   2.1223   2.1232   2.1329   2.1337
     2.1477   2.1616   2.1620   2.1637   2.1890   2.1920   2.1942   2.2128
     2.2366   2.2388   2.2693   2.2825   2.2860   2.2874   2.2926   2.2955
     2.3455   2.3662   2.3885   2.3892   2.3950   2.3974   2.4129   2.4140
     2.4437   2.4438   2.4551   2.4564   2.4589   2.4621   2.4801   2.4827
     2.5220   2.5271   2.5319   2.5331   2.5397   2.5640   2.5676   2.5688
     2.5717   2.5741   2.6039   2.6177   2.6204   2.6224   2.6266   2.6393
     2.6465   2.6471   2.6643   2.6666   2.6706   2.6709   2.6815   2.6856
     2.7005   2.7082   2.7542   2.7610   2.7636   2.7886   2.7916   2.8025
     2.8064   2.8076   2.8084   2.8111   2.8240   2.8277   2.8287   2.8413
     2.8428   2.8480   2.8500   2.8711   2.8937   2.8966   2.8969   2.8985
     2.9098   2.9125   2.9263   2.9303   2.9381   2.9396   2.9853   2.9853
     2.9879   2.9881   2.9899   3.0017   3.0083   3.0096   3.0116   3.0165
     3.0200   3.0207   3.0277   3.0279   3.0338   3.0372   3.0449   3.0479
     3.0660   3.0758   3.0763   3.0777   3.0794   3.0831   3.0833   3.0845
     3.1072   3.1153   3.1279   3.1294   3.1321   3.1375   3.1466   3.1507
     3.1944   3.2400   3.2952   3.3628   3.3909   3.3921   3.4851   3.5513
     3.5519   3.8041   3.8474   3.8563   3.8639   3.9055   4.1656   4.4073
     4.5701   4.8219   4.8311   5.0581   5.1498   5.1705   5.2039   5.9204
     5.9217   6.1417   6.2194   6.2938   6.3144   6.3146   6.5214   6.7371
     6.8301   6.9233   6.9850   7.0981   7.1563   7.3141   7.5397   7.8168
     7.8460   7.8624   8.0184   8.1143   8.2896   8.3117   8.3267   8.4388
     8.4968   8.7336   8.7878   8.7909   8.9258   8.9835   9.3114   9.3326
     9.3390   9.4668   9.5687   9.7150   9.8178   9.8376   9.9140   9.9861
    10.0396  10.0701  10.1087  10.1981  10.2741  10.4103  10.4884  10.4939
    10.5639  10.5711  10.6172  10.7261  10.7301  10.8081  10.8334  10.8792
    10.9536  11.0109  11.0224  11.0691  11.1195  11.2829  11.4637  11.4769
    11.5153  11.5459  11.6059  11.6887  11.7584  11.7963  11.8870  11.9914
    12.0750  12.1782  12.2389  12.3230  12.3895  12.4198  12.4953  12.5051
    12.5631  12.6233  12.7034  12.7572  12.8280  12.8394  12.9115  12.9169
    12.9863  13.0708  13.1384  13.1574  13.2133  13.2710  13.3249  13.4125
    13.4214  13.4674

          k = 0.2500 0.1443 0.0000 ( 61417 PWs)   bands (ev):

  -107.7382-107.7316-107.7282-107.7274-107.7264-107.7257-107.7250-107.7249
  -107.7240-107.7233-107.7232-107.7224-107.7224-107.7218-107.7218-107.7214
  -107.7211-107.7203-107.7188-107.7183-107.7175-107.7158-107.7157-107.7141
  -107.7122-107.7122-107.7119-107.7092-107.7077-107.7075-107.7065-107.7062
  -107.7056-107.7053-107.7048-107.7018-107.5474-107.5447-107.5447-107.5252
  -107.5226-107.5225-107.5096-107.5072-107.5071-107.4719-107.4690-107.4680
  -107.4678-107.4665-107.4663-107.4658-107.4647-107.4647 -65.1865 -65.1787
   -65.1764 -65.1754 -65.1746 -65.1741 -65.1733 -65.1726 -65.1706 -65.1702
   -65.1688 -65.1686 -65.1675 -65.1671 -65.1632 -65.1626 -65.1615 -65.1600
   -65.1588 -65.1585 -65.1575 -65.1572 -65.1571 -65.1563 -65.1550 -65.1549
   -65.1542 -65.1531 -65.1499 -65.1496 -65.1479 -65.1469 -65.1469 -65.1460
   -65.1457 -65.1446 -65.1443 -65.1432 -65.1419 -65.1417 -65.1398 -65.1396
   -65.1378 -65.1363 -65.1362 -65.1356 -65.1350 -65.1350 -65.1338 -65.1333
   -65.1322 -65.1317 -65.1310 -65.1305 -65.1300 -65.1289 -65.1284 -65.1283
   -65.1269 -65.1265 -65.1260 -65.1259 -65.1254 -65.1249 -65.1240 -65.1229
   -65.1218 -65.1211 -65.1210 -65.1201 -65.1195 -65.1192 -65.1187 -65.1183
   -65.1180 -65.1174 -65.1172 -65.1165 -65.1161 -65.1158 -65.1157 -65.1148
   -65.1144 -65.1134 -65.1130 -65.1120 -65.1118 -65.1114 -65.1109 -65.1105
   -65.1103 -65.1092 -65.1078 -65.1074 -65.1073 -65.1044 -65.1044 -65.1042
   -65.1034 -65.1029 -65.1012 -65.1006 -65.1004 -65.0996 -65.0972 -65.0965
   -65.0934 -65.0903 -65.0002 -64.9979 -64.9974 -64.9870 -64.9783 -64.9780
   -64.9749 -64.9701 -64.9694 -64.9560 -64.9539 -64.9460 -64.9446 -64.9431
   -64.9406 -64.9381 -64.9341 -64.9330 -64.9327 -64.9324 -64.9314 -64.9312
   -64.9306 -64.9305 -64.9273 -64.9249 -64.9195 -64.9193 -64.9138 -64.9135
   -64.9108 -64.9053 -64.9030 -64.9030 -64.8954 -64.8952 -64.8942 -64.8913
   -64.8910 -64.8880 -64.8872 -64.8858 -64.8857 -64.8833 -64.8801 -64.8438
   -64.8410 -64.8400 -64.8398 -64.8386 -64.8385 -64.8380 -64.8369 -64.8368
   -13.0153 -10.2601 -10.2574  -6.6515  -6.6434  -4.6920  -3.7861  -3.1769
    -3.0762  -2.7453  -2.2599  -2.1878  -2.1197  -2.0873  -1.6438  -1.4752
    -1.4714  -1.2833  -1.0078  -0.9913  -0.9207  -0.7912  -0.4155  -0.4148
    -0.3343  -0.3285  -0.2323  -0.2044  -0.1780  -0.1501  -0.1304  -0.1217
     0.0039   0.0374   0.0443   0.1404   0.1431   0.1438   0.3101   0.3247
     0.3476   0.4130   0.4140   0.5909   0.6042   0.6371   0.6372   0.6541
     0.6734   0.6734   0.6911   0.6933   0.7322   0.7413   0.7435   0.7451
     0.7551   0.7560   0.7980   0.7981   0.8324   0.8328   0.8623   0.8632
     0.8641   0.9136   0.9169   0.9301   0.9301   0.9492   0.9504   0.9622
     0.9626   0.9877   0.9890   1.0388   1.1041   1.1056   1.1058   1.1327
     1.1332   1.1430   1.1470   1.1761   1.1770   1.2171   1.2196   1.2206
     1.2851   1.2893   1.2901   1.3081   1.3258   1.3313   1.3733   1.3757
     1.3787   1.4009   1.4040   1.4182   1.4379   1.4680   1.4913   1.4960
     1.4974   1.5149   1.5217   1.5406   1.5641   1.5732   1.5871   1.5932
     1.6001   1.6012   1.6392   1.6524   1.6744   1.7032   1.7117   1.7192
     1.7201   1.7326   1.7357   1.7411   1.7704   1.7787   1.7798   1.7918
     1.7933   1.8038   1.8089   1.8138   1.8266   1.8322   1.8357   1.8505
     1.8623   1.8684   1.8692   1.8748   1.8801   1.8889   1.8938   1.8989
     1.9009   1.9056   1.9092   1.9093   1.9310   1.9355   1.9404   1.9502
     1.9527   1.9679   1.9691   1.9795   1.9842   1.9869   1.9882   2.0114
     2.0237   2.0258   2.0383   2.0477   2.0480   2.0506   2.0554   2.0615
     2.0779   2.0819   2.1058   2.1148   2.1223   2.1232   2.1329   2.1337
     2.1477   2.1616   2.1620   2.1637   2.1890   2.1920   2.1942   2.2128
     2.2366   2.2388   2.2693   2.2825   2.2860   2.2874   2.2926   2.2955
     2.3455   2.3662   2.3885   2.3892   2.3950   2.3974   2.4129   2.4140
     2.4437   2.4438   2.4551   2.4564   2.4589   2.4621   2.4801   2.4827
     2.5220   2.5271   2.5319   2.5331   2.5397   2.5640   2.5676   2.5688
     2.5717   2.5741   2.6039   2.6177   2.6204   2.6224   2.6266   2.6393
     2.6465   2.6471   2.6643   2.6666   2.6706   2.6709   2.6815   2.6856
     2.7005   2.7082   2.7542   2.7610   2.7636   2.7886   2.7916   2.8025
     2.8064   2.8076   2.8084   2.8111   2.8240   2.8277   2.8287   2.8413
     2.8428   2.8480   2.8500   2.8711   2.8937   2.8966   2.8969   2.8985
     2.9098   2.9125   2.9263   2.9303   2.9381   2.9396   2.9853   2.9853
     2.9879   2.9881   2.9899   3.0017   3.0083   3.0096   3.0116   3.0165
     3.0200   3.0207   3.0277   3.0279   3.0338   3.0372   3.0449   3.0479
     3.0660   3.0758   3.0763   3.0777   3.0794   3.0831   3.0833   3.0845
     3.1072   3.1153   3.1279   3.1294   3.1321   3.1375   3.1466   3.1507
     3.1944   3.2400   3.2952   3.3628   3.3909   3.3921   3.4851   3.5513
     3.5519   3.8041   3.8474   3.8563   3.8639   3.9055   4.1656   4.4073
     4.5701   4.8219   4.8311   5.0581   5.1498   5.1705   5.2039   5.9204
     5.9217   6.1417   6.2194   6.2938   6.3144   6.3146   6.5214   6.7371
     6.8300   6.9233   6.9850   7.0981   7.1563   7.3141   7.5397   7.8168
     7.8460   7.8624   8.0184   8.1143   8.2896   8.3117   8.3267   8.4388
     8.4968   8.7336   8.7878   8.7909   8.9258   8.9835   9.3114   9.3326
     9.3390   9.4668   9.5686   9.7150   9.8178   9.8376   9.9140   9.9861
    10.0397  10.0701  10.1087  10.1981  10.2741  10.4103  10.4884  10.4939
    10.5639  10.5711  10.6172  10.7261  10.7301  10.8081  10.8334  10.8792
    10.9536  11.0109  11.0224  11.0691  11.1195  11.2829  11.4637  11.4769
    11.5153  11.5459  11.6059  11.6887  11.7584  11.7963  11.8870  11.9914
    12.0750  12.1782  12.2389  12.3230  12.3895  12.4198  12.4953  12.5051
    12.5631  12.6233  12.7034  12.7572  12.8280  12.8393  12.9115  12.9168
    12.9863  13.0708  13.1384  13.1574  13.2133  13.2710  13.3249  13.4124
    13.4214  13.4675

          k = 0.5000-0.2887 0.0000 ( 61408 PWs)   bands (ev):

  -107.7382-107.7309-107.7294-107.7276-107.7265-107.7253-107.7246-107.7245
  -107.7242-107.7231-107.7230-107.7229-107.7226-107.7219-107.7216-107.7211
  -107.7209-107.7202-107.7195-107.7183-107.7176-107.7156-107.7155-107.7141
  -107.7123-107.7121-107.7116-107.7096-107.7080-107.7077-107.7063-107.7055
  -107.7054-107.7054-107.7051-107.7018-107.5473-107.5447-107.5447-107.5252
  -107.5226-107.5225-107.5097-107.5072-107.5071-107.4709-107.4704-107.4682
  -107.4680-107.4659-107.4658-107.4655-107.4651-107.4650 -65.1839 -65.1815
   -65.1793 -65.1781 -65.1757 -65.1744 -65.1734 -65.1729 -65.1717 -65.1717
   -65.1712 -65.1708 -65.1704 -65.1694 -65.1667 -65.1627 -65.1603 -65.1601
   -65.1599 -65.1593 -65.1587 -65.1583 -65.1581 -65.1579 -65.1559 -65.1551
   -65.1546 -65.1535 -65.1491 -65.1477 -65.1471 -65.1469 -65.1463 -65.1454
   -65.1445 -65.1415 -65.1408 -65.1397 -65.1379 -65.1376 -65.1375 -65.1371
   -65.1365 -65.1354 -65.1348 -65.1347 -65.1341 -65.1328 -65.1326 -65.1314
   -65.1303 -65.1300 -65.1298 -65.1294 -65.1291 -65.1289 -65.1273 -65.1270
   -65.1255 -65.1245 -65.1240 -65.1237 -65.1231 -65.1227 -65.1226 -65.1225
   -65.1224 -65.1221 -65.1217 -65.1205 -65.1197 -65.1193 -65.1187 -65.1182
   -65.1180 -65.1175 -65.1165 -65.1157 -65.1153 -65.1152 -65.1151 -65.1143
   -65.1141 -65.1137 -65.1126 -65.1125 -65.1123 -65.1117 -65.1116 -65.1114
   -65.1105 -65.1102 -65.1098 -65.1080 -65.1075 -65.1072 -65.1069 -65.1068
   -65.1045 -65.1041 -65.1038 -65.1028 -65.1020 -65.1009 -65.1006 -65.0995
   -65.0937 -65.0923 -65.0031 -64.9995 -64.9988 -64.9885 -64.9799 -64.9757
   -64.9726 -64.9653 -64.9635 -64.9567 -64.9530 -64.9484 -64.9454 -64.9423
   -64.9419 -64.9381 -64.9357 -64.9348 -64.9345 -64.9343 -64.9340 -64.9330
   -64.9320 -64.9306 -64.9305 -64.9255 -64.9159 -64.9156 -64.9053 -64.9036
   -64.9034 -64.9033 -64.9030 -64.9030 -64.9029 -64.8953 -64.8952 -64.8947
   -64.8922 -64.8920 -64.8880 -64.8858 -64.8857 -64.8834 -64.8829 -64.8428
   -64.8423 -64.8402 -64.8400 -64.8381 -64.8380 -64.8377 -64.8371 -64.8370
   -13.0145 -10.2635 -10.2582  -6.6548  -6.6386  -4.6638  -3.1614  -3.1607
    -3.0479  -2.7491  -2.5741  -2.5703  -2.1807  -2.0954  -1.7147  -1.6522
    -1.6279  -1.6269  -1.1718  -1.1209  -1.0442  -0.6012  -0.5185  -0.4054
    -0.3841  -0.2157  -0.1408  -0.0146   0.1555   0.1696   0.1886   0.1890
     0.1897   0.1908   0.1933   0.2749   0.3347   0.3530   0.3552   0.3667
     0.3682   0.3868   0.3870   0.3879   0.3881   0.4407   0.4408   0.4421
     0.4421   0.5709   0.6027   0.6028   0.6062   0.6063   0.6299   0.6843
     0.7846   0.7847   0.7860   0.7863   0.7924   0.8115   0.8232   0.8316
     0.8327   0.8365   0.8367   0.9574   0.9579   0.9595   0.9597   0.9791
     0.9828   1.0620   1.0685   1.0703   1.0765   1.0769   1.1192   1.1198
     1.1615   1.1623   1.2182   1.2188   1.2276   1.2281   1.2878   1.2919
     1.3116   1.3149   1.3262   1.3293   1.3393   1.3411   1.3574   1.3644
     1.3661   1.3986   1.4315   1.4561   1.4652   1.4745   1.4813   1.4920
     1.5041   1.5086   1.5170   1.5204   1.5205   1.5388   1.5500   1.5777
     1.5785   1.5790   1.5809   1.5899   1.6071   1.6387   1.6457   1.6551
     1.6564   1.6585   1.6586   1.6619   1.6650   1.6954   1.7116   1.7496
     1.7537   1.7555   1.7650   1.7691   1.7944   1.8043   1.8051   1.8064
     1.8071   1.8116   1.8187   1.8649   1.8687   1.8713   1.8721   1.8832
     1.8853   1.8862   1.9167   1.9194   1.9225   1.9288   1.9455   1.9471
     1.9505   1.9524   1.9533   1.9734   1.9745   1.9792   1.9848   2.0041
     2.0077   2.0315   2.0437   2.0451   2.0981   2.0997   2.1096   2.1112
     2.1114   2.1121   2.1145   2.1147   2.1187   2.1275   2.1321   2.1334
     2.1420   2.1533   2.1540   2.1599   2.1601   2.1649   2.1657   2.2349
     2.2392   2.2420   2.2511   2.3115   2.3117   2.3180   2.3181   2.3198
     2.3236   2.3249   2.3349   2.3376   2.3410   2.3526   2.3655   2.3833
     2.3951   2.3964   2.3990   2.4030   2.4177   2.4239   2.4244   2.4255
     2.4273   2.4387   2.4462   2.4488   2.4516   2.4634   2.4638   2.5480
     2.5544   2.5787   2.5804   2.6053   2.6060   2.6085   2.6097   2.6368
     2.6375   2.6465   2.6617   2.6741   2.6798   2.6830   2.6861   2.6994
     2.7042   2.7196   2.7209   2.7223   2.7236   2.7354   2.7386   2.7517
     2.7552   2.7585   2.7675   2.8090   2.8091   2.8128   2.8135   2.8242
     2.8246   2.8413   2.8454   2.8711   2.8733   2.8851   2.8886   2.9082
     2.9084   2.9287   2.9351   2.9443   2.9531   2.9886   2.9899   3.0102
     3.0137   3.0147   3.0178   3.0368   3.0451   3.0455   3.0473   3.0482
     3.0503   3.0549   3.0753   3.0766   3.0772   3.0772   3.0779   3.0926
     3.0945   3.0975   3.1098   3.1146   3.1266   3.1307   3.1386   3.1395
     3.1406   3.1506   3.1560   3.1759   3.1819   3.1940   3.1947   3.1970
     3.1971   3.2709   3.3198   3.8187   3.8633   3.8726   3.8943   4.3531
     4.4052   4.4059   4.4061   4.4067   4.6669   4.6710   4.6729   4.6739
     4.9937   5.0188   5.0679   5.1513   5.2027   5.2151   5.2328   5.2489
     5.2563   5.5088   5.8438   6.0938   6.1105   6.1142   6.1758   6.2085
     6.2091   6.2464   6.2687   6.6388   6.7620   6.9427   7.0537   7.5061
     7.5170   7.5233   7.7203   7.8435   7.9804   8.2849   8.3834   8.4257
     8.6385   8.6477   8.6531   8.6944   8.9268   8.9742   9.0085   9.2025
     9.2859   9.2962   9.3067   9.3162   9.4478   9.5769   9.6293   9.7650
     9.8294   9.9355   9.9369   9.9704  10.0123  10.2628  10.3086  10.3951
    10.4213  10.4841  10.5742  10.5994  10.6220  10.8006  10.8722  11.0227
    11.0375  11.1214  11.2597  11.2882  11.3129  11.4156  11.4720  11.4965
    11.6354  11.6920  11.7668  12.0254  12.1423  12.1680  12.3212  12.3417
    12.3484  12.3675  12.4166  12.6279  12.6944  12.8103  12.8632  12.9394
    12.9980  13.0345  13.1023  13.1355  13.1991  13.2840  13.2881  13.2954
    13.3517  13.3555  13.3641  13.4083  13.6061  13.6417  13.7026  13.7317
    13.8236  13.8281

          k =-0.5000-0.2887 0.0000 ( 61408 PWs)   bands (ev):

  -107.7382-107.7309-107.7294-107.7276-107.7265-107.7253-107.7246-107.7245
  -107.7242-107.7231-107.7230-107.7229-107.7226-107.7219-107.7216-107.7212
  -107.7209-107.7202-107.7195-107.7183-107.7176-107.7156-107.7155-107.7141
  -107.7123-107.7121-107.7116-107.7096-107.7080-107.7077-107.7063-107.7055
  -107.7054-107.7054-107.7051-107.7018-107.5473-107.5447-107.5447-107.5252
  -107.5226-107.5225-107.5097-107.5072-107.5071-107.4709-107.4704-107.4682
  -107.4680-107.4659-107.4658-107.4655-107.4651-107.4650 -65.1839 -65.1815
   -65.1793 -65.1781 -65.1757 -65.1744 -65.1734 -65.1729 -65.1717 -65.1717
   -65.1711 -65.1708 -65.1704 -65.1694 -65.1667 -65.1627 -65.1603 -65.1601
   -65.1599 -65.1593 -65.1587 -65.1583 -65.1581 -65.1579 -65.1559 -65.1551
   -65.1546 -65.1535 -65.1491 -65.1477 -65.1471 -65.1469 -65.1463 -65.1454
   -65.1445 -65.1415 -65.1408 -65.1397 -65.1379 -65.1376 -65.1375 -65.1371
   -65.1365 -65.1354 -65.1348 -65.1347 -65.1341 -65.1328 -65.1326 -65.1314
   -65.1303 -65.1300 -65.1298 -65.1294 -65.1291 -65.1289 -65.1273 -65.1270
   -65.1255 -65.1245 -65.1241 -65.1237 -65.1231 -65.1227 -65.1226 -65.1225
   -65.1224 -65.1221 -65.1217 -65.1205 -65.1197 -65.1193 -65.1187 -65.1182
   -65.1180 -65.1175 -65.1165 -65.1157 -65.1153 -65.1152 -65.1151 -65.1143
   -65.1141 -65.1137 -65.1126 -65.1125 -65.1123 -65.1117 -65.1116 -65.1114
   -65.1105 -65.1102 -65.1098 -65.1080 -65.1075 -65.1072 -65.1069 -65.1068
   -65.1045 -65.1041 -65.1038 -65.1028 -65.1020 -65.1009 -65.1006 -65.0995
   -65.0937 -65.0923 -65.0031 -64.9995 -64.9988 -64.9885 -64.9799 -64.9757
   -64.9726 -64.9653 -64.9635 -64.9567 -64.9530 -64.9484 -64.9454 -64.9423
   -64.9419 -64.9381 -64.9357 -64.9348 -64.9345 -64.9343 -64.9340 -64.9330
   -64.9320 -64.9306 -64.9305 -64.9256 -64.9159 -64.9156 -64.9053 -64.9036
   -64.9034 -64.9033 -64.9030 -64.9030 -64.9029 -64.8953 -64.8952 -64.8947
   -64.8922 -64.8920 -64.8880 -64.8858 -64.8857 -64.8834 -64.8829 -64.8428
   -64.8423 -64.8402 -64.8400 -64.8381 -64.8380 -64.8377 -64.8371 -64.8370
   -13.0145 -10.2635 -10.2582  -6.6547  -6.6387  -4.6638  -3.1614  -3.1607
    -3.0479  -2.7491  -2.5741  -2.5703  -2.1808  -2.0953  -1.7147  -1.6522
    -1.6279  -1.6269  -1.1718  -1.1209  -1.0442  -0.6012  -0.5185  -0.4054
    -0.3841  -0.2158  -0.1407  -0.0146   0.1555   0.1696   0.1886   0.1890
     0.1897   0.1908   0.1933   0.2749   0.3347   0.3530   0.3552   0.3667
     0.3682   0.3868   0.3870   0.3879   0.3881   0.4407   0.4409   0.4421
     0.4421   0.5709   0.6027   0.6028   0.6062   0.6063   0.6299   0.6843
     0.7846   0.7847   0.7860   0.7863   0.7924   0.8115   0.8232   0.8316
     0.8327   0.8365   0.8367   0.9574   0.9579   0.9595   0.9597   0.9791
     0.9828   1.0620   1.0685   1.0703   1.0765   1.0769   1.1192   1.1198
     1.1615   1.1623   1.2182   1.2188   1.2276   1.2280   1.2878   1.2919
     1.3116   1.3149   1.3262   1.3293   1.3393   1.3411   1.3574   1.3644
     1.3661   1.3986   1.4315   1.4561   1.4652   1.4745   1.4813   1.4920
     1.5041   1.5086   1.5170   1.5204   1.5205   1.5388   1.5500   1.5777
     1.5785   1.5790   1.5809   1.5899   1.6071   1.6387   1.6457   1.6551
     1.6564   1.6585   1.6586   1.6619   1.6650   1.6954   1.7116   1.7496
     1.7537   1.7555   1.7650   1.7691   1.7944   1.8043   1.8051   1.8064
     1.8071   1.8116   1.8187   1.8649   1.8687   1.8713   1.8721   1.8832
     1.8853   1.8862   1.9167   1.9194   1.9225   1.9288   1.9455   1.9471
     1.9505   1.9524   1.9533   1.9734   1.9745   1.9792   1.9848   2.0041
     2.0077   2.0315   2.0437   2.0451   2.0981   2.0997   2.1096   2.1111
     2.1114   2.1121   2.1145   2.1147   2.1187   2.1275   2.1321   2.1334
     2.1420   2.1533   2.1540   2.1599   2.1601   2.1649   2.1657   2.2349
     2.2392   2.2420   2.2511   2.3115   2.3117   2.3180   2.3181   2.3198
     2.3236   2.3249   2.3349   2.3376   2.3410   2.3526   2.3655   2.3833
     2.3951   2.3964   2.3990   2.4030   2.4177   2.4239   2.4244   2.4255
     2.4273   2.4387   2.4462   2.4488   2.4516   2.4634   2.4638   2.5480
     2.5544   2.5787   2.5804   2.6053   2.6060   2.6085   2.6097   2.6368
     2.6375   2.6465   2.6617   2.6741   2.6798   2.6829   2.6861   2.6994
     2.7042   2.7196   2.7209   2.7223   2.7236   2.7354   2.7386   2.7517
     2.7552   2.7585   2.7675   2.8090   2.8091   2.8128   2.8135   2.8242
     2.8246   2.8413   2.8454   2.8711   2.8734   2.8851   2.8886   2.9082
     2.9084   2.9287   2.9351   2.9443   2.9531   2.9886   2.9899   3.0102
     3.0137   3.0147   3.0178   3.0368   3.0451   3.0455   3.0473   3.0482
     3.0503   3.0549   3.0753   3.0766   3.0772   3.0772   3.0779   3.0926
     3.0946   3.0975   3.1098   3.1146   3.1266   3.1307   3.1386   3.1395
     3.1406   3.1506   3.1560   3.1760   3.1819   3.1940   3.1947   3.1970
     3.1971   3.2709   3.3198   3.8187   3.8633   3.8726   3.8943   4.3531
     4.4052   4.4059   4.4061   4.4067   4.6669   4.6710   4.6729   4.6739
     4.9937   5.0188   5.0679   5.1513   5.2027   5.2151   5.2328   5.2489
     5.2563   5.5088   5.8438   6.0938   6.1105   6.1142   6.1758   6.2085
     6.2091   6.2464   6.2687   6.6388   6.7620   6.9427   7.0537   7.5061
     7.5170   7.5233   7.7203   7.8435   7.9804   8.2849   8.3834   8.4257
     8.6385   8.6477   8.6531   8.6944   8.9268   8.9742   9.0085   9.2025
     9.2859   9.2962   9.3067   9.3162   9.4478   9.5769   9.6293   9.7650
     9.8294   9.9356   9.9369   9.9704  10.0123  10.2628  10.3086  10.3951
    10.4213  10.4841  10.5742  10.5994  10.6220  10.8006  10.8722  11.0227
    11.0375  11.1214  11.2597  11.2882  11.3129  11.4156  11.4720  11.4965
    11.6354  11.6920  11.7668  12.0254  12.1423  12.1680  12.3210  12.3417
    12.3484  12.3675  12.4166  12.6279  12.6945  12.8103  12.8632  12.9394
    12.9980  13.0345  13.1023  13.1355  13.1991  13.2840  13.2882  13.2954
    13.3517  13.3555  13.3641  13.4083  13.6061  13.6418  13.7026  13.7316
    13.8236  13.8282

          k =-0.2500-0.7217 0.0000 ( 61343 PWs)   bands (ev):

  -107.7382-107.7309-107.7290-107.7284-107.7258-107.7254-107.7248-107.7243
  -107.7242-107.7237-107.7231-107.7227-107.7223-107.7218-107.7216-107.7212
  -107.7209-107.7202-107.7193-107.7187-107.7174-107.7156-107.7155-107.7141
  -107.7123-107.7121-107.7116-107.7094-107.7085-107.7073-107.7061-107.7058
  -107.7055-107.7053-107.7050-107.7018-107.5473-107.5447-107.5447-107.5252
  -107.5226-107.5225-107.5097-107.5072-107.5071-107.4711-107.4697-107.4694
  -107.4669-107.4664-107.4658-107.4656-107.4650-107.4648 -65.1842 -65.1802
   -65.1781 -65.1778 -65.1766 -65.1765 -65.1756 -65.1743 -65.1732 -65.1710
   -65.1707 -65.1698 -65.1670 -65.1660 -65.1650 -65.1641 -65.1640 -65.1620
   -65.1611 -65.1586 -65.1582 -65.1578 -65.1572 -65.1563 -65.1555 -65.1552
   -65.1540 -65.1533 -65.1513 -65.1502 -65.1480 -65.1457 -65.1453 -65.1444
   -65.1425 -65.1420 -65.1415 -65.1405 -65.1403 -65.1384 -65.1375 -65.1369
   -65.1367 -65.1357 -65.1349 -65.1345 -65.1328 -65.1316 -65.1312 -65.1307
   -65.1303 -65.1302 -65.1299 -65.1289 -65.1285 -65.1278 -65.1273 -65.1267
   -65.1261 -65.1253 -65.1246 -65.1245 -65.1242 -65.1235 -65.1224 -65.1218
   -65.1214 -65.1208 -65.1203 -65.1201 -65.1198 -65.1193 -65.1186 -65.1184
   -65.1183 -65.1177 -65.1170 -65.1165 -65.1162 -65.1151 -65.1151 -65.1146
   -65.1138 -65.1137 -65.1132 -65.1128 -65.1125 -65.1124 -65.1122 -65.1118
   -65.1106 -65.1095 -65.1093 -65.1080 -65.1073 -65.1069 -65.1064 -65.1062
   -65.1056 -65.1051 -65.1036 -65.1028 -65.1023 -65.1015 -65.0983 -65.0965
   -65.0961 -65.0924 -65.0022 -65.0008 -64.9990 -64.9870 -64.9802 -64.9773
   -64.9703 -64.9676 -64.9635 -64.9563 -64.9513 -64.9474 -64.9455 -64.9441
   -64.9402 -64.9399 -64.9392 -64.9372 -64.9355 -64.9329 -64.9307 -64.9306
   -64.9306 -64.9299 -64.9268 -64.9265 -64.9263 -64.9072 -64.9053 -64.9052
   -64.9043 -64.9042 -64.9030 -64.9030 -64.8987 -64.8984 -64.8977 -64.8974
   -64.8910 -64.8880 -64.8865 -64.8864 -64.8858 -64.8857 -64.8824 -64.8430
   -64.8417 -64.8413 -64.8391 -64.8384 -64.8380 -64.8378 -64.8371 -64.8369
   -13.0145 -10.2623 -10.2594  -6.6505  -6.6429  -4.6641  -3.3664  -3.0478
    -2.7697  -2.7489  -2.5617  -2.5601  -2.1682  -2.1252  -1.9989  -1.9803
    -1.8594  -1.2605  -1.1340  -0.9994  -0.6819  -0.5490  -0.5472  -0.2290
    -0.2028  -0.1974  -0.1609  -0.1437  -0.1310   0.0426   0.0427   0.0532
     0.2115   0.2156   0.2373   0.2378   0.2532   0.3036   0.3134   0.3140
     0.3327   0.4316   0.4333   0.4349   0.4359   0.4977   0.5108   0.5701
     0.5752   0.5852   0.5966   0.6269   0.6271   0.6284   0.6457   0.6476
     0.7002   0.7035   0.7398   0.7420   0.7702   0.7704   0.8003   0.8056
     0.8083   0.8654   0.8670   0.8979   0.9180   0.9361   0.9370   1.0002
     1.0114   1.0609   1.0799   1.0821   1.1007   1.1038   1.1633   1.1687
     1.1762   1.1928   1.1936   1.1992   1.2435   1.2662   1.2697   1.3071
     1.3128   1.3240   1.3334   1.3395   1.3449   1.3636   1.3646   1.3997
     1.4130   1.4215   1.4259   1.4295   1.4387   1.4445   1.4612   1.4631
     1.4659   1.4832   1.4885   1.5116   1.5180   1.5240   1.5380   1.5675
     1.5702   1.5767   1.6159   1.6204   1.6211   1.6312   1.6430   1.6517
     1.6690   1.6774   1.6969   1.7123   1.7133   1.7211   1.7281   1.7307
     1.7494   1.7656   1.7693   1.7727   1.7730   1.8094   1.8156   1.8201
     1.8207   1.8268   1.8363   1.8470   1.8495   1.8657   1.8672   1.8781
     1.8803   1.9011   1.9112   1.9260   1.9337   1.9453   1.9509   1.9569
     1.9578   1.9668   1.9700   1.9771   1.9799   1.9803   1.9919   1.9938
     2.0006   2.0114   2.0169   2.0247   2.0458   2.0475   2.0589   2.0640
     2.0800   2.0815   2.0830   2.0858   2.0870   2.0915   2.0932   2.0980
     2.0983   2.1073   2.1621   2.1630   2.2206   2.2258   2.2273   2.2313
     2.2353   2.2394   2.2572   2.2591   2.2829   2.2904   2.2957   2.3073
     2.3242   2.3265   2.3631   2.3645   2.3685   2.3962   2.3973   2.3986
     2.3992   2.3999   2.4035   2.4055   2.4086   2.4184   2.4360   2.4386
     2.4721   2.4773   2.4860   2.4862   2.4931   2.5000   2.5094   2.5304
     2.5356   2.5411   2.5519   2.5676   2.5721   2.5901   2.6026   2.6034
     2.6149   2.6193   2.6440   2.6501   2.6560   2.6678   2.6879   2.6922
     2.7088   2.7130   2.7144   2.7321   2.7378   2.7535   2.7598   2.7626
     2.7647   2.7699   2.7721   2.7760   2.7834   2.7908   2.8071   2.8251
     2.8500   2.8528   2.8530   2.8656   2.9028   2.9046   2.9181   2.9263
     2.9490   2.9620   2.9656   2.9713   2.9729   2.9761   2.9839   3.0146
     3.0181   3.0186   3.0235   3.0267   3.0347   3.0379   3.0403   3.0414
     3.0469   3.0481   3.0500   3.0516   3.0558   3.0670   3.0697   3.0807
     3.0823   3.0935   3.0941   3.1028   3.1087   3.1208   3.1276   3.1351
     3.1363   3.1526   3.1724   3.1754   3.1944   3.2144   3.2158   3.3786
     3.3975   3.4830   3.4835   3.5792   3.5819   3.7101   3.9024   3.9130
     4.2954   4.3334   4.3896   4.3920   4.4083   4.6653   4.7596   4.7877
     4.7964   4.7979   4.9768   5.2322   5.2618   5.2663   5.7187   5.7453
     5.7851   5.9114   5.9866   6.0049   6.0129   6.1525   6.1652   6.2251
     6.3169   6.6484   6.7087   6.7399   6.9015   6.9700   7.0646   7.0817
     7.1314   7.1885   7.2310   7.4659   7.6818   7.7335   7.9871   8.0202
     8.4565   8.5713   8.5765   8.6793   8.7524   8.9103   9.1563   9.1793
     9.2501   9.3465   9.3822   9.5125   9.5472   9.6151   9.7352   9.7687
     9.8196  10.0011  10.0459  10.1365  10.1946  10.3924  10.4188  10.4950
    10.5401  10.6459  10.8041  10.8896  10.9445  11.0068  11.1049  11.2020
    11.2100  11.2757  11.4443  11.5551  11.5669  11.6294  11.6332  11.7249
    11.7788  11.8789  11.9157  11.9573  11.9753  12.0852  12.1280  12.2051
    12.3094  12.3940  12.4791  12.4947  12.5783  12.6139  12.6571  12.7028
    12.7289  12.8092  12.8254  12.8770  12.9561  13.0867  13.1520  13.1841
    13.3205  13.3446  13.3898  13.4356  13.5082  13.5692  13.6117  13.6697
    13.7197  13.7397

          k =-0.5000-0.5774 0.0000 ( 61343 PWs)   bands (ev):

  -107.7382-107.7309-107.7290-107.7284-107.7258-107.7254-107.7248-107.7243
  -107.7242-107.7237-107.7231-107.7227-107.7223-107.7218-107.7216-107.7212
  -107.7209-107.7202-107.7193-107.7187-107.7174-107.7156-107.7155-107.7141
  -107.7123-107.7121-107.7116-107.7094-107.7085-107.7073-107.7061-107.7058
  -107.7055-107.7053-107.7050-107.7018-107.5473-107.5447-107.5447-107.5252
  -107.5226-107.5225-107.5097-107.5072-107.5071-107.4711-107.4697-107.4694
  -107.4669-107.4664-107.4658-107.4656-107.4650-107.4648 -65.1842 -65.1802
   -65.1781 -65.1778 -65.1766 -65.1765 -65.1756 -65.1743 -65.1732 -65.1710
   -65.1707 -65.1698 -65.1670 -65.1660 -65.1650 -65.1641 -65.1640 -65.1620
   -65.1611 -65.1586 -65.1581 -65.1578 -65.1572 -65.1563 -65.1555 -65.1552
   -65.1540 -65.1533 -65.1513 -65.1502 -65.1480 -65.1457 -65.1453 -65.1444
   -65.1425 -65.1420 -65.1415 -65.1405 -65.1403 -65.1384 -65.1375 -65.1369
   -65.1367 -65.1357 -65.1349 -65.1345 -65.1328 -65.1316 -65.1312 -65.1307
   -65.1303 -65.1302 -65.1299 -65.1289 -65.1285 -65.1278 -65.1273 -65.1267
   -65.1261 -65.1253 -65.1246 -65.1245 -65.1242 -65.1234 -65.1224 -65.1218
   -65.1214 -65.1208 -65.1203 -65.1201 -65.1198 -65.1193 -65.1186 -65.1184
   -65.1183 -65.1177 -65.1170 -65.1165 -65.1162 -65.1151 -65.1151 -65.1146
   -65.1138 -65.1137 -65.1132 -65.1128 -65.1125 -65.1124 -65.1122 -65.1118
   -65.1106 -65.1095 -65.1093 -65.1080 -65.1073 -65.1069 -65.1064 -65.1062
   -65.1056 -65.1051 -65.1036 -65.1028 -65.1023 -65.1015 -65.0983 -65.0965
   -65.0961 -65.0924 -65.0022 -65.0008 -64.9990 -64.9870 -64.9802 -64.9773
   -64.9703 -64.9676 -64.9635 -64.9563 -64.9513 -64.9474 -64.9455 -64.9441
   -64.9402 -64.9399 -64.9392 -64.9372 -64.9355 -64.9329 -64.9307 -64.9306
   -64.9306 -64.9299 -64.9268 -64.9265 -64.9263 -64.9072 -64.9053 -64.9052
   -64.9043 -64.9042 -64.9030 -64.9030 -64.8987 -64.8984 -64.8977 -64.8974
   -64.8910 -64.8880 -64.8865 -64.8864 -64.8858 -64.8857 -64.8824 -64.8430
   -64.8417 -64.8413 -64.8391 -64.8384 -64.8380 -64.8378 -64.8371 -64.8369
   -13.0145 -10.2621 -10.2596  -6.6509  -6.6425  -4.6641  -3.3664  -3.0478
    -2.7697  -2.7489  -2.5617  -2.5601  -2.1682  -2.1252  -1.9989  -1.9803
    -1.8594  -1.2605  -1.1340  -0.9994  -0.6819  -0.5490  -0.5472  -0.2289
    -0.2028  -0.1973  -0.1610  -0.1437  -0.1311   0.0426   0.0427   0.0532
     0.2115   0.2156   0.2373   0.2378   0.2532   0.3036   0.3134   0.3140
     0.3327   0.4316   0.4333   0.4349   0.4359   0.4977   0.5108   0.5700
     0.5752   0.5852   0.5966   0.6269   0.6271   0.6284   0.6457   0.6476
     0.7002   0.7035   0.7398   0.7420   0.7702   0.7704   0.8003   0.8056
     0.8083   0.8654   0.8670   0.8979   0.9180   0.9361   0.9370   1.0002
     1.0114   1.0609   1.0799   1.0821   1.1007   1.1038   1.1633   1.1687
     1.1762   1.1928   1.1936   1.1992   1.2435   1.2662   1.2697   1.3071
     1.3128   1.3240   1.3334   1.3395   1.3449   1.3636   1.3646   1.3998
     1.4130   1.4215   1.4259   1.4295   1.4387   1.4445   1.4612   1.4631
     1.4659   1.4832   1.4885   1.5116   1.5180   1.5240   1.5380   1.5675
     1.5702   1.5767   1.6159   1.6204   1.6211   1.6312   1.6430   1.6517
     1.6690   1.6774   1.6969   1.7123   1.7133   1.7211   1.7281   1.7307
     1.7494   1.7656   1.7693   1.7727   1.7730   1.8094   1.8157   1.8201
     1.8207   1.8268   1.8363   1.8470   1.8495   1.8657   1.8672   1.8781
     1.8803   1.9011   1.9112   1.9260   1.9337   1.9453   1.9508   1.9569
     1.9578   1.9668   1.9700   1.9771   1.9799   1.9803   1.9919   1.9938
     2.0006   2.0114   2.0169   2.0247   2.0458   2.0475   2.0588   2.0640
     2.0800   2.0815   2.0830   2.0858   2.0870   2.0915   2.0932   2.0980
     2.0983   2.1073   2.1620   2.1630   2.2206   2.2258   2.2273   2.2313
     2.2353   2.2394   2.2572   2.2591   2.2829   2.2904   2.2957   2.3073
     2.3242   2.3265   2.3631   2.3645   2.3685   2.3962   2.3973   2.3986
     2.3992   2.3999   2.4035   2.4055   2.4086   2.4184   2.4360   2.4386
     2.4721   2.4773   2.4860   2.4862   2.4930   2.5000   2.5094   2.5304
     2.5357   2.5411   2.5519   2.5676   2.5722   2.5901   2.6026   2.6034
     2.6149   2.6193   2.6440   2.6501   2.6560   2.6678   2.6879   2.6922
     2.7088   2.7130   2.7144   2.7321   2.7378   2.7535   2.7598   2.7626
     2.7647   2.7699   2.7721   2.7760   2.7834   2.7908   2.8071   2.8251
     2.8500   2.8528   2.8530   2.8656   2.9028   2.9046   2.9181   2.9263
     2.9490   2.9620   2.9656   2.9713   2.9729   2.9761   2.9839   3.0146
     3.0181   3.0186   3.0235   3.0267   3.0347   3.0379   3.0403   3.0414
     3.0469   3.0481   3.0500   3.0516   3.0558   3.0670   3.0697   3.0808
     3.0823   3.0935   3.0941   3.1028   3.1087   3.1208   3.1276   3.1351
     3.1363   3.1526   3.1724   3.1754   3.1944   3.2144   3.2158   3.3786
     3.3975   3.4830   3.4835   3.5792   3.5819   3.7101   3.9024   3.9130
     4.2954   4.3334   4.3896   4.3920   4.4083   4.6653   4.7596   4.7877
     4.7964   4.7979   4.9768   5.2322   5.2618   5.2663   5.7187   5.7452
     5.7851   5.9114   5.9866   6.0049   6.0129   6.1525   6.1652   6.2251
     6.3169   6.6484   6.7087   6.7399   6.9015   6.9700   7.0645   7.0817
     7.1314   7.1885   7.2310   7.4659   7.6818   7.7335   7.9871   8.0202
     8.4564   8.5713   8.5765   8.6793   8.7524   8.9104   9.1562   9.1793
     9.2501   9.3465   9.3822   9.5125   9.5472   9.6151   9.7352   9.7687
     9.8196  10.0011  10.0459  10.1366  10.1946  10.3924  10.4188  10.4950
    10.5401  10.6459  10.8041  10.8896  10.9445  11.0067  11.1049  11.2020
    11.2100  11.2758  11.4444  11.5551  11.5669  11.6294  11.6332  11.7249
    11.7788  11.8789  11.9157  11.9573  11.9752  12.0852  12.1279  12.2051
    12.3095  12.3940  12.4791  12.4947  12.5782  12.6139  12.6571  12.7028
    12.7289  12.8092  12.8254  12.8770  12.9561  13.0867  13.1520  13.1841
    13.3205  13.3446  13.3899  13.4357  13.5082  13.5692  13.6118  13.6697
    13.7197  13.7398

     the Fermi energy is     4.7128 ev

!    total energy              =  -21903.75626238 Ry
     Harris-Foulkes estimate   =  -21903.75626241 Ry
     estimated scf accuracy    <          5.2E-09 Ry

     The total energy is the sum of the following terms:

     one-electron contribution = -208653.56110514 Ry
     hartree contribution      =  104532.87621770 Ry
     xc contribution           =   -2143.26466361 Ry
     ewald contribution        =   84360.24630515 Ry
     smearing contrib. (-TS)   =      -0.05301648 Ry

     convergence has been achieved in  39 iterations
 
     init_run     :     95.62s CPU     97.94s WALL (       1 calls)
     electrons    :  18386.43s CPU  18662.68s WALL (       1 calls)

     Called by init_run:
     wfcinit      :     84.15s CPU     85.87s WALL (       1 calls)
     potinit      :      8.40s CPU      8.57s WALL (       1 calls)
     hinit0       :      1.46s CPU      1.47s WALL (       1 calls)

     Called by electrons:
     c_bands      :  17094.20s CPU  17313.54s WALL (      39 calls)
     sum_band     :    999.88s CPU   1031.69s WALL (      39 calls)
     v_of_rho     :    246.08s CPU    253.92s WALL (      40 calls)
     newd         :     42.87s CPU     60.45s WALL (      40 calls)
     mix_rho      :      7.02s CPU      7.13s WALL (      39 calls)

     Called by c_bands:
     init_us_2    :     13.44s CPU     13.54s WALL (     790 calls)
     cegterg      :  16974.46s CPU  17189.22s WALL (     390 calls)

     Called by sum_band:
     sum_band:bec :      2.78s CPU      2.79s WALL (     390 calls)
     addusdens    :     32.25s CPU     52.01s WALL (      39 calls)

     Called by *egterg:
     h_psi        :   4347.09s CPU   4416.22s WALL (    2100 calls)
     s_psi        :    380.54s CPU    380.89s WALL (    2100 calls)
     g_psi        :      5.64s CPU      5.67s WALL (    1700 calls)
     cdiaghg      :   9961.25s CPU  10017.61s WALL (    2090 calls)

     Called by h_psi:
     h_psi:pot    :   4338.08s CPU   4390.22s WALL (    2100 calls)
     h_psi:calbec :    439.39s CPU    440.15s WALL (    2100 calls)
     vloc_psi     :   3517.11s CPU   3567.61s WALL (    2100 calls)
     add_vuspsi   :    381.56s CPU    382.43s WALL (    2100 calls)

     General routines
     calbec       :    598.14s CPU    599.04s WALL (    2490 calls)
     fft          :    234.36s CPU    235.76s WALL (    2519 calls)
     ffts         :      1.44s CPU      1.44s WALL (      79 calls)
     fftw         :   4094.44s CPU   4152.02s WALL ( 1545290 calls)
     interpolate  :      3.87s CPU      3.90s WALL (      40 calls)
 
     Parallel routines
     fft_scatt_xy :    199.94s CPU    201.89s WALL ( 1547888 calls)
     fft_scatt_yz :   3298.95s CPU   3345.90s WALL ( 1547888 calls)
 
     PWSCF        :     5h 8m CPU        8h 5m WALL

      12h
 
   This run was terminated on:  17:18:47  22Nov2019            

=------------------------------------------------------------------------------=
   JOB DONE.
=------------------------------------------------------------------------------=
