
     Program PWSCF v.6.3MaX starts on 25Nov2019 at  6:30:22 

     This program is part of the open-source Quantum ESPRESSO suite
     for quantum simulation of materials; please cite
         "P. Giannozzi et al., J. Phys.:Condens. Matter 21 395502 (2009);
         "P. Giannozzi et al., J. Phys.:Condens. Matter 29 465901 (2017);
          URL http://www.quantum-espresso.org", 
     in publications or presentations arising from this work. More details at
     http://www.quantum-espresso.org/quote

     Parallel version (MPI), running on    16 processors

     MPI processes distributed on     2 nodes
     R & G space division:  proc/nbgrp/npool/nimage =      16
     Waiting for input...
     Reading input from standard input

     Current dimensions of program PWSCF are:
     Max number of different atomic species (ntypx) = 10
     Max number of k-points (npk) =  40000
     Max angular momentum in pseudopotentials (lmaxx) =  3
     Message from routine iosys:
     minimal I/O required, wf_collect reset to FALSE

     IMPORTANT: XC functional enforced from input :
     Exchange-correlation      = VDW-DF ( 1  4  4  0 1 0)
     Any further DFT definition will be discarded
     Please, verify this is what you really want


     Subspace diagonalization in iterative solution of the eigenvalue problem:
     one sub-group per band group will be used
     scalapack distributed-memory algorithm (size of sub-group:  2*  2 procs)

 
     Parallelization info
     --------------------
     sticks:   dense  smooth     PW     G-vecs:    dense   smooth      PW
     Min         565     189     51               159513    30701    4383
     Max         566     190     52               159526    30710    4400
     Sum        9055    3037    823              2552337   491295   70261
 


     bravais-lattice index     =            0
     lattice parameter (alat)  =      14.8058  a.u.
     unit-cell volume          =   10282.4791 (a.u.)^3
     number of atoms/cell      =           66
     number of atomic types    =            3
     number of electrons       =      1056.00
     number of Kohn-Sham states=          634
     kinetic-energy cutoff     =      50.0000  Ry
     charge density cutoff     =     600.0000  Ry
     convergence threshold     =      1.0E-08
     mixing beta               =       0.3000
     number of iterations used =            8  plain     mixing
     Exchange-correlation      = VDW-DF ( 1  4  4  0 1 0)

     celldm(1)=  14.805786  celldm(2)=   0.000000  celldm(3)=   0.000000
     celldm(4)=   0.000000  celldm(5)=   0.000000  celldm(6)=   0.000000

     crystal axes: (cart. coord. in units of alat)
               a(1) = (   1.000000   0.000000   0.000000 )  
               a(2) = (   0.500000   0.866025   0.000000 )  
               a(3) = (   0.000000   0.000000   3.658245 )  

     reciprocal axes: (cart. coord. in units 2 pi/alat)
               b(1) = (  1.000000 -0.577350  0.000000 )  
               b(2) = (  0.000000  1.154701  0.000000 )  
               b(3) = (  0.000000  0.000000  0.273355 )  


     PseudoPot. # 1 for Cu read from file:
     /deac/thonhauserGrp/chakrad/calculations/atomandmolecule-qe6.2.1-i2012-C6modif/all_pbe_UPF_v1.5/cu_pbe_v1.2.uspp.F.UPF
     MD5 check sum: 6e991ff952a84172a2a52a1c1e996048
     Pseudo is Ultrasoft + core correction, Zval = 19.0
     Generated by new atomic code, or converted to UPF format
     Using radial grid of  867 points,  6 beta functions with: 
                l(1) =   0
                l(2) =   0
                l(3) =   1
                l(4) =   1
                l(5) =   2
                l(6) =   2
     Q(r) pseudized with  8 coefficients,  rinner =    1.150   1.150   1.150
                                                       1.150   1.150

     PseudoPot. # 2 for C  read from file:
     /deac/thonhauserGrp/chakrad/calculations/atomandmolecule-qe6.2.1-i2012-C6modif/all_pbe_UPF_v1.5/c_pbe_v1.2.uspp.F.UPF
     MD5 check sum: d1aef80898a10debaa0f26306b886e00
     Pseudo is Ultrasoft + core correction, Zval =  4.0
     Generated by new atomic code, or converted to UPF format
     Using radial grid of  721 points,  4 beta functions with: 
                l(1) =   0
                l(2) =   0
                l(3) =   1
                l(4) =   1
     Q(r) pseudized with  8 coefficients,  rinner =    1.100   1.100   1.100


     PseudoPot. # 3 for H  read from file:
     /deac/thonhauserGrp/chakrad/calculations/atomandmolecule-qe6.2.1-i2012-C6modif/all_pbe_UPF_v1.5/h_pbe_v1.4.uspp.F.UPF
     MD5 check sum: 761ae9a214b05c3daf00ab9f6b793d6f
     Pseudo is Ultrasoft, Zval =  1.0
     Generated by new atomic code, or converted to UPF format
     Using radial grid of  615 points,  2 beta functions with: 
                l(1) =   0
                l(2) =   0
     Q(r) pseudized with  8 coefficients,  rinner =    0.700

     vdW kernel table read from file vdW_kernel_table
     MD5 check sum: cc9485f6209b1096fbef62427c856dab

     atomic species   valence    mass     pseudopotential
        Cu            19.00     1.00000     Cu( 1.00)
        C              4.00     1.00000     C ( 1.00)
        H              1.00     1.00000     H ( 1.00)

     No symmetry found



   Cartesian axes

     site n.     atom                  positions (alat units)
         1           Cu  tau(   1) = (   0.1666667   0.0962250   0.2552686  )
         2           Cu  tau(   2) = (   0.5000000   0.0962250   0.2552686  )
         3           Cu  tau(   3) = (   0.8333333   0.0962250   0.2552686  )
         4           Cu  tau(   4) = (   0.3333333   0.3849002   0.2552686  )
         5           Cu  tau(   5) = (   0.6666667   0.3849002   0.2552686  )
         6           Cu  tau(   6) = (   1.0000000   0.3849002   0.2552686  )
         7           Cu  tau(   7) = (   0.5000000   0.6735753   0.2552686  )
         8           Cu  tau(   8) = (   0.8333333   0.6735753   0.2552686  )
         9           Cu  tau(   9) = (   1.1666667   0.6735753   0.2552686  )
        10           Cu  tau(  10) = (   0.0000000   0.1924501   0.5274341  )
        11           Cu  tau(  11) = (   0.3333333   0.1924501   0.5274341  )
        12           Cu  tau(  12) = (   0.6666667   0.1924501   0.5274341  )
        13           Cu  tau(  13) = (   0.1666667   0.4811252   0.5274341  )
        14           Cu  tau(  14) = (   0.5000000   0.4811252   0.5274341  )
        15           Cu  tau(  15) = (   0.8333333   0.4811252   0.5274341  )
        16           Cu  tau(  16) = (   0.3333333   0.7698004   0.5274341  )
        17           Cu  tau(  17) = (   0.6666667   0.7698004   0.5274341  )
        18           Cu  tau(  18) = (   1.0000000   0.7698004   0.5274341  )
        19           Cu  tau(  19) = (   0.0000000   0.0000000   0.7995997  )
        20           Cu  tau(  20) = (   0.3333333   0.0000000   0.7995997  )
        21           Cu  tau(  21) = (   0.6666667   0.0000000   0.7995997  )
        22           Cu  tau(  22) = (   0.1666667   0.2886751   0.7995997  )
        23           Cu  tau(  23) = (   0.5000000   0.2886751   0.7995997  )
        24           Cu  tau(  24) = (   0.8333333   0.2886751   0.7995997  )
        25           Cu  tau(  25) = (   0.3333333   0.5773503   0.7995997  )
        26           Cu  tau(  26) = (   0.6666667   0.5773503   0.7995997  )
        27           Cu  tau(  27) = (   1.0000000   0.5773503   0.7995997  )
        28           Cu  tau(  28) = (   0.1666659   0.0962246   1.0691130  )
        29           Cu  tau(  29) = (   0.5000000   0.0962241   1.0691104  )
        30           Cu  tau(  30) = (   0.8333341   0.0962246   1.0691130  )
        31           Cu  tau(  31) = (   0.3333325   0.3849006   1.0691104  )
        32           Cu  tau(  32) = (   0.6666675   0.3849006   1.0691104  )
        33           Cu  tau(  33) = (   1.0000000   0.3849003   1.0691143  )
        34           Cu  tau(  34) = (   0.5000000   0.6735762   1.0691130  )
        35           Cu  tau(  35) = (   0.8333334   0.6735753   1.0691143  )
        36           Cu  tau(  36) = (   1.1666666   0.6735753   1.0691143  )
        37           Cu  tau(  37) = (   0.0000000   0.1924486   1.3387540  )
        38           Cu  tau(  38) = (   0.3333330   0.1924499   1.3387465  )
        39           Cu  tau(  39) = (   0.6666670   0.1924499   1.3387465  )
        40           Cu  tau(  40) = (   0.1666676   0.4811247   1.3387504  )
        41           Cu  tau(  41) = (   0.5000000   0.4811256   1.3387465  )
        42           Cu  tau(  42) = (   0.8333324   0.4811247   1.3387504  )
        43           Cu  tau(  43) = (   0.3333346   0.7698011   1.3387540  )
        44           Cu  tau(  44) = (   0.6666654   0.7698011   1.3387540  )
        45           Cu  tau(  45) = (   1.0000000   0.7698014   1.3387504  )
        46           Cu  tau(  46) = (   0.0000000   0.0000000   1.6083750  )
        47           Cu  tau(  47) = (   0.3333333   0.0000005   1.6083624  )
        48           Cu  tau(  48) = (   0.6666667   0.0000005   1.6083624  )
        49           Cu  tau(  49) = (   0.1666671   0.2886748   1.6083624  )
        50           Cu  tau(  50) = (   0.5000000   0.2886751   1.6083553  )
        51           Cu  tau(  51) = (   0.8333329   0.2886748   1.6083624  )
        52           Cu  tau(  52) = (   0.3333338   0.5773500   1.6083624  )
        53           Cu  tau(  53) = (   0.6666662   0.5773500   1.6083624  )
        54           Cu  tau(  54) = (   1.0000000   0.5773503   1.6083570  )
        55           C   tau(  55) = (   0.6567407   0.3959883   1.9529305  )
        56           C   tau(  56) = (   0.5046394   0.3028152   1.9529305  )
        57           C   tau(  57) = (   0.3478975   0.3879497   1.9529305  )
        58           C   tau(  58) = (   0.3432593   0.5662630   1.9529305  )
        59           C   tau(  59) = (   0.4953606   0.6594361   1.9529305  )
        60           C   tau(  60) = (   0.6521025   0.5743016   1.9529305  )
        61           H   tau(  61) = (   0.7789959   0.3295665   1.9530088  )
        62           H   tau(  62) = (   0.5082587   0.1637263   1.9530088  )
        63           H   tau(  63) = (   0.2292624   0.3152577   1.9530088  )
        64           H   tau(  64) = (   0.2210041   0.6326847   1.9530088  )
        65           H   tau(  65) = (   0.4917413   0.7985249   1.9530088  )
        66           H   tau(  66) = (   0.7707376   0.6469936   1.9530088  )

     number of k points=    10  gaussian smearing, width (Ry)=  0.0200
                       cart. coord. in units 2pi/alat
        k(    1) = (   0.0000000   0.0000000   0.0000000), wk =   0.1250000
        k(    2) = (   0.0000000   0.2886751   0.0000000), wk =   0.2500000
        k(    3) = (   0.0000000  -0.5773503   0.0000000), wk =   0.1250000
        k(    4) = (   0.2500000  -0.7216878   0.0000000), wk =   0.2500000
        k(    5) = (  -0.2500000   0.1443376   0.0000000), wk =   0.2500000
        k(    6) = (   0.2500000   0.1443376   0.0000000), wk =   0.2500000
        k(    7) = (   0.5000000  -0.2886751   0.0000000), wk =   0.1250000
        k(    8) = (  -0.5000000  -0.2886751   0.0000000), wk =   0.1250000
        k(    9) = (  -0.2500000  -0.7216878   0.0000000), wk =   0.2500000
        k(   10) = (  -0.5000000  -0.5773503   0.0000000), wk =   0.2500000

     Dense  grid:  2552337 G-vectors     FFT dimensions: ( 120, 120, 432)

     Smooth grid:   491295 G-vectors     FFT dimensions: (  72,  72, 243)

     Estimated max dynamical RAM per process >       1.14 GB

     Estimated total dynamical RAM >      18.26 GB

     Initial potential from superposition of free atoms
     Check: negative starting charge=   -0.000838

     starting charge 1001.99960, renormalised to 1056.00000

     negative rho (up, down):  8.827E-04 0.000E+00


     %%%%%%%%%%%%%%%%%%%%%%%%%%%%%%%%%%%%%%%%%%%%%%%%%%%%%%%%%%%%%%%%%%%%%%%%
     %                                                                      %
     % You are using vdW-DF, which was implemented by the Thonhauser group. %
     % Please cite the following two papers that made this development      %
     % possible and the two reviews that describe the various versions:     %
     %                                                                      %
     %   T. Thonhauser et al., PRL 115, 136402 (2015).                      %
     %   T. Thonhauser et al., PRB 76, 125112 (2007).                       %
     %   K. Berland et al., Rep. Prog. Phys. 78, 066501 (2015).             %
     %   D.C. Langreth et al., J. Phys.: Condens. Matter 21, 084203 (2009). %
     %                                                                      %
     %                                                                      %
     % If you are calculating the stress with vdW-DF, please also cite:     %
     %                                                                      %
     %   R. Sabatini et al., J. Phys.: Condens. Matter 24, 424209 (2012).   %
     %                                                                      %
     %%%%%%%%%%%%%%%%%%%%%%%%%%%%%%%%%%%%%%%%%%%%%%%%%%%%%%%%%%%%%%%%%%%%%%%%


     Starting wfcs are  732 randomized atomic wfcs

     total cpu time spent up to now is       87.3 secs

     Self-consistent Calculation

     iteration #  1     ecut=    50.00 Ry     beta= 0.30
     Davidson diagonalization with overlap
     ethr =  1.00E-02,  avg # of iterations =  5.9

     negative rho (up, down):  5.062E-04 0.000E+00

     total cpu time spent up to now is     1431.2 secs

     total energy              =  -18808.56769682 Ry
     Harris-Foulkes estimate   =  -22013.40306739 Ry
     estimated scf accuracy    <    6333.55981263 Ry

     iteration #  2     ecut=    50.00 Ry     beta= 0.30
     Davidson diagonalization with overlap
     c_bands:  1 eigenvalues not converged
     ethr =  1.00E-02,  avg # of iterations = 18.8

     negative rho (up, down):  5.486E-04 0.000E+00

     total cpu time spent up to now is     4241.2 secs

     total energy              =  -19193.54485591 Ry
     Harris-Foulkes estimate   =  -39047.95924570 Ry
     estimated scf accuracy    <  276100.06335558 Ry

     iteration #  3     ecut=    50.00 Ry     beta= 0.30
     Davidson diagonalization with overlap
     ethr =  1.00E-02,  avg # of iterations =  7.1

     negative rho (up, down):  6.225E-04 0.000E+00

     total cpu time spent up to now is     5776.2 secs

     total energy              =  -21483.78123887 Ry
     Harris-Foulkes estimate   =  -23554.68037992 Ry
     estimated scf accuracy    <   58468.24825843 Ry

     iteration #  4     ecut=    50.00 Ry     beta= 0.30
     Davidson diagonalization with overlap
     ethr =  1.00E-02,  avg # of iterations =  7.6

     negative rho (up, down):  7.597E-04 0.000E+00

     total cpu time spent up to now is     7480.8 secs

     total energy              =  -21651.06188867 Ry
     Harris-Foulkes estimate   =  -22147.24138202 Ry
     estimated scf accuracy    <   15356.42754125 Ry

     iteration #  5     ecut=    50.00 Ry     beta= 0.30
     Davidson diagonalization with overlap
     ethr =  1.00E-02,  avg # of iterations =  6.1

     negative rho (up, down):  8.311E-04 0.000E+00

     total cpu time spent up to now is     8808.1 secs

     total energy              =  -21798.55052039 Ry
     Harris-Foulkes estimate   =  -22225.40993695 Ry
     estimated scf accuracy    <    8632.33215146 Ry

     iteration #  6     ecut=    50.00 Ry     beta= 0.30
     Davidson diagonalization with overlap
     ethr =  1.00E-02,  avg # of iterations =  6.9

     negative rho (up, down):  9.761E-04 0.000E+00

     total cpu time spent up to now is     9961.1 secs

     total energy              =  -21900.75315156 Ry
     Harris-Foulkes estimate   =  -21968.67924320 Ry
     estimated scf accuracy    <    2249.83982690 Ry

     iteration #  7     ecut=    50.00 Ry     beta= 0.30
     Davidson diagonalization with overlap
     ethr =  1.00E-02,  avg # of iterations =  2.5

     negative rho (up, down):  1.147E-03 0.000E+00

     total cpu time spent up to now is    10216.3 secs

     total energy              =  -21913.67224823 Ry
     Harris-Foulkes estimate   =  -21938.55927277 Ry
     estimated scf accuracy    <     242.39792080 Ry

     iteration #  8     ecut=    50.00 Ry     beta= 0.30
     Davidson diagonalization with overlap
     ethr =  1.00E-02,  avg # of iterations =  3.0

     negative rho (up, down):  1.275E-03 0.000E+00

     total cpu time spent up to now is    10478.7 secs

     total energy              =  -21917.08782980 Ry
     Harris-Foulkes estimate   =  -21920.78741348 Ry
     estimated scf accuracy    <     101.23098432 Ry

     iteration #  9     ecut=    50.00 Ry     beta= 0.30
     Davidson diagonalization with overlap
     ethr =  9.59E-03,  avg # of iterations =  1.0

     negative rho (up, down):  1.408E-03 0.000E+00

     total cpu time spent up to now is    10681.3 secs

     total energy              =  -21910.02444985 Ry
     Harris-Foulkes estimate   =  -21917.86526354 Ry
     estimated scf accuracy    <     107.76041186 Ry

     iteration # 10     ecut=    50.00 Ry     beta= 0.30
     Davidson diagonalization with overlap
     ethr =  9.59E-03,  avg # of iterations =  1.0

     negative rho (up, down):  1.816E-03 0.000E+00

     total cpu time spent up to now is    10879.1 secs

     total energy              =  -21893.51309797 Ry
     Harris-Foulkes estimate   =  -21911.89414489 Ry
     estimated scf accuracy    <      94.29970944 Ry

     iteration # 11     ecut=    50.00 Ry     beta= 0.30
     Davidson diagonalization with overlap
     ethr =  8.93E-03,  avg # of iterations =  3.7

     negative rho (up, down):  1.238E-04 0.000E+00

     total cpu time spent up to now is    11290.5 secs

     total energy              =  -21898.31863744 Ry
     Harris-Foulkes estimate   =  -21927.33058078 Ry
     estimated scf accuracy    <     747.09797707 Ry

     iteration # 12     ecut=    50.00 Ry     beta= 0.30
     Davidson diagonalization with overlap
     ethr =  8.93E-03,  avg # of iterations =  2.0

     negative rho (up, down):  1.244E-04 0.000E+00

     total cpu time spent up to now is    11510.6 secs

     total energy              =  -21900.39522830 Ry
     Harris-Foulkes estimate   =  -21909.12348746 Ry
     estimated scf accuracy    <      90.49290913 Ry

     iteration # 13     ecut=    50.00 Ry     beta= 0.30
     Davidson diagonalization with overlap
     ethr =  8.57E-03,  avg # of iterations =  2.6

     negative rho (up, down):  1.394E-04 0.000E+00

     total cpu time spent up to now is    11755.8 secs

     total energy              =  -21902.22469666 Ry
     Harris-Foulkes estimate   =  -21904.55199742 Ry
     estimated scf accuracy    <      12.48994928 Ry

     iteration # 14     ecut=    50.00 Ry     beta= 0.30
     Davidson diagonalization with overlap
     ethr =  1.18E-03,  avg # of iterations =  4.9

     negative rho (up, down):  1.322E-04 0.000E+00

     total cpu time spent up to now is    12135.2 secs

     total energy              =  -21904.05277147 Ry
     Harris-Foulkes estimate   =  -21904.59826428 Ry
     estimated scf accuracy    <      11.82124221 Ry

     iteration # 15     ecut=    50.00 Ry     beta= 0.30
     Davidson diagonalization with overlap
     ethr =  1.12E-03,  avg # of iterations =  1.0

     negative rho (up, down):  1.565E-04 0.000E+00

     total cpu time spent up to now is    12327.2 secs

     total energy              =  -21903.98538091 Ry
     Harris-Foulkes estimate   =  -21904.38671815 Ry
     estimated scf accuracy    <       5.81088611 Ry

     iteration # 16     ecut=    50.00 Ry     beta= 0.30
     Davidson diagonalization with overlap
     ethr =  5.50E-04,  avg # of iterations =  1.8

     negative rho (up, down):  1.817E-04 0.000E+00

     total cpu time spent up to now is    12552.1 secs

     total energy              =  -21903.89442330 Ry
     Harris-Foulkes estimate   =  -21904.13486045 Ry
     estimated scf accuracy    <       4.68660901 Ry

     iteration # 17     ecut=    50.00 Ry     beta= 0.30
     Davidson diagonalization with overlap
     ethr =  4.44E-04,  avg # of iterations =  2.2

     negative rho (up, down):  2.932E-04 0.000E+00

     total cpu time spent up to now is    12790.2 secs

     total energy              =  -21903.75054239 Ry
     Harris-Foulkes estimate   =  -21903.95541171 Ry
     estimated scf accuracy    <       2.27088450 Ry

     iteration # 18     ecut=    50.00 Ry     beta= 0.30
     Davidson diagonalization with overlap
     ethr =  2.15E-04,  avg # of iterations =  6.8

     negative rho (up, down):  3.665E-04 0.000E+00

     total cpu time spent up to now is    13202.2 secs

     total energy              =  -21903.75011402 Ry
     Harris-Foulkes estimate   =  -21903.82150855 Ry
     estimated scf accuracy    <       0.66007530 Ry

     iteration # 19     ecut=    50.00 Ry     beta= 0.30
     Davidson diagonalization with overlap
     ethr =  6.25E-05,  avg # of iterations =  6.6

     negative rho (up, down):  4.637E-04 0.000E+00

     total cpu time spent up to now is    13596.4 secs

     total energy              =  -21903.75548269 Ry
     Harris-Foulkes estimate   =  -21903.77740948 Ry
     estimated scf accuracy    <       0.42449955 Ry

     iteration # 20     ecut=    50.00 Ry     beta= 0.30
     Davidson diagonalization with overlap
     ethr =  4.02E-05,  avg # of iterations =  4.9

     negative rho (up, down):  8.904E-04 0.000E+00

     total cpu time spent up to now is    13920.8 secs

     total energy              =  -21903.71104743 Ry
     Harris-Foulkes estimate   =  -21903.76016564 Ry
     estimated scf accuracy    <       0.16139543 Ry

     iteration # 21     ecut=    50.00 Ry     beta= 0.30
     Davidson diagonalization with overlap
     ethr =  1.53E-05,  avg # of iterations =  7.0

     negative rho (up, down):  9.165E-04 0.000E+00

     total cpu time spent up to now is    14410.6 secs

     total energy              =  -21903.72060904 Ry
     Harris-Foulkes estimate   =  -21903.74669864 Ry
     estimated scf accuracy    <       0.20708811 Ry

     iteration # 22     ecut=    50.00 Ry     beta= 0.30
     Davidson diagonalization with overlap
     ethr =  1.53E-05,  avg # of iterations =  5.7

     negative rho (up, down):  9.903E-04 0.000E+00

     total cpu time spent up to now is    14760.3 secs

     total energy              =  -21903.73126812 Ry
     Harris-Foulkes estimate   =  -21903.73729914 Ry
     estimated scf accuracy    <       0.08951217 Ry

     iteration # 23     ecut=    50.00 Ry     beta= 0.30
     Davidson diagonalization with overlap
     ethr =  8.48E-06,  avg # of iterations =  3.8

     negative rho (up, down):  1.070E-03 0.000E+00

     total cpu time spent up to now is    15037.2 secs

     total energy              =  -21903.73369939 Ry
     Harris-Foulkes estimate   =  -21903.73538589 Ry
     estimated scf accuracy    <       0.01525861 Ry

     iteration # 24     ecut=    50.00 Ry     beta= 0.30
     Davidson diagonalization with overlap
     ethr =  1.44E-06,  avg # of iterations =  5.6

     negative rho (up, down):  1.265E-03 0.000E+00

     total cpu time spent up to now is    15396.6 secs

     total energy              =  -21903.73402399 Ry
     Harris-Foulkes estimate   =  -21903.73475349 Ry
     estimated scf accuracy    <       0.00499620 Ry

     iteration # 25     ecut=    50.00 Ry     beta= 0.30
     Davidson diagonalization with overlap
     ethr =  4.73E-07,  avg # of iterations =  6.2

     negative rho (up, down):  1.579E-03 0.000E+00

     total cpu time spent up to now is    15792.2 secs

     total energy              =  -21903.73432482 Ry
     Harris-Foulkes estimate   =  -21903.73442265 Ry
     estimated scf accuracy    <       0.00126735 Ry

     iteration # 26     ecut=    50.00 Ry     beta= 0.30
     Davidson diagonalization with overlap
     c_bands:  1 eigenvalues not converged
     c_bands:  1 eigenvalues not converged
     c_bands:  1 eigenvalues not converged
     ethr =  1.20E-07,  avg # of iterations =  9.8

     negative rho (up, down):  1.873E-03 0.000E+00

     total cpu time spent up to now is    16340.7 secs

     total energy              =  -21903.73446183 Ry
     Harris-Foulkes estimate   =  -21903.73446565 Ry
     estimated scf accuracy    <       0.00043507 Ry

     iteration # 27     ecut=    50.00 Ry     beta= 0.30
     Davidson diagonalization with overlap
     ethr =  4.12E-08,  avg # of iterations =  4.2

     negative rho (up, down):  2.034E-03 0.000E+00

     total cpu time spent up to now is    16639.7 secs

     total energy              =  -21903.73450774 Ry
     Harris-Foulkes estimate   =  -21903.73450622 Ry
     estimated scf accuracy    <       0.00010153 Ry

     iteration # 28     ecut=    50.00 Ry     beta= 0.30
     Davidson diagonalization with overlap
     ethr =  9.62E-09,  avg # of iterations =  2.6

     negative rho (up, down):  2.311E-03 0.000E+00

     total cpu time spent up to now is    16878.3 secs

     total energy              =  -21903.73452899 Ry
     Harris-Foulkes estimate   =  -21903.73451983 Ry
     estimated scf accuracy    <       0.00004347 Ry

     iteration # 29     ecut=    50.00 Ry     beta= 0.30
     Davidson diagonalization with overlap
     ethr =  4.12E-09,  avg # of iterations =  5.9

     negative rho (up, down):  2.381E-03 0.000E+00

     total cpu time spent up to now is    17226.4 secs

     total energy              =  -21903.73453210 Ry
     Harris-Foulkes estimate   =  -21903.73453355 Ry
     estimated scf accuracy    <       0.00002328 Ry

     iteration # 30     ecut=    50.00 Ry     beta= 0.30
     Davidson diagonalization with overlap
     ethr =  2.20E-09,  avg # of iterations =  2.0

     negative rho (up, down):  2.596E-03 0.000E+00

     total cpu time spent up to now is    17447.1 secs

     total energy              =  -21903.73453491 Ry
     Harris-Foulkes estimate   =  -21903.73453542 Ry
     estimated scf accuracy    <       0.00002146 Ry

     iteration # 31     ecut=    50.00 Ry     beta= 0.30
     Davidson diagonalization with overlap
     ethr =  2.03E-09,  avg # of iterations =  2.3

     negative rho (up, down):  2.651E-03 0.000E+00

     total cpu time spent up to now is    17671.5 secs

     total energy              =  -21903.73453604 Ry
     Harris-Foulkes estimate   =  -21903.73453644 Ry
     estimated scf accuracy    <       0.00000176 Ry

     iteration # 32     ecut=    50.00 Ry     beta= 0.30
     Davidson diagonalization with overlap
     ethr =  1.66E-10,  avg # of iterations =  2.0

     negative rho (up, down):  2.678E-03 0.000E+00

     total cpu time spent up to now is    17900.8 secs

     total energy              =  -21903.73453598 Ry
     Harris-Foulkes estimate   =  -21903.73453635 Ry
     estimated scf accuracy    <       0.00000121 Ry

     iteration # 33     ecut=    50.00 Ry     beta= 0.30
     Davidson diagonalization with overlap
     ethr =  1.15E-10,  avg # of iterations =  2.0

     negative rho (up, down):  2.683E-03 0.000E+00

     total cpu time spent up to now is    18120.5 secs

     total energy              =  -21903.73453594 Ry
     Harris-Foulkes estimate   =  -21903.73453624 Ry
     estimated scf accuracy    <       0.00000510 Ry

     iteration # 34     ecut=    50.00 Ry     beta= 0.30
     Davidson diagonalization with overlap
     ethr =  1.15E-10,  avg # of iterations =  1.0

     negative rho (up, down):  2.699E-03 0.000E+00

     total cpu time spent up to now is    18315.2 secs

     total energy              =  -21903.73453595 Ry
     Harris-Foulkes estimate   =  -21903.73453612 Ry
     estimated scf accuracy    <       0.00000058 Ry

     iteration # 35     ecut=    50.00 Ry     beta= 0.30
     Davidson diagonalization with overlap
     ethr =  5.51E-11,  avg # of iterations =  2.0

     negative rho (up, down):  2.709E-03 0.000E+00

     total cpu time spent up to now is    18537.8 secs

     total energy              =  -21903.73453588 Ry
     Harris-Foulkes estimate   =  -21903.73453599 Ry
     estimated scf accuracy    <       0.00000009 Ry

     iteration # 36     ecut=    50.00 Ry     beta= 0.30
     Davidson diagonalization with overlap
     ethr =  8.09E-12,  avg # of iterations =  2.0

     negative rho (up, down):  2.712E-03 0.000E+00

     total cpu time spent up to now is    18772.7 secs

     total energy              =  -21903.73453585 Ry
     Harris-Foulkes estimate   =  -21903.73453590 Ry
     estimated scf accuracy    <       0.00000016 Ry

     iteration # 37     ecut=    50.00 Ry     beta= 0.30
     Davidson diagonalization with overlap
     ethr =  8.09E-12,  avg # of iterations =  1.7

     negative rho (up, down):  2.714E-03 0.000E+00

     total cpu time spent up to now is    18985.8 secs

     total energy              =  -21903.73453583 Ry
     Harris-Foulkes estimate   =  -21903.73453587 Ry
     estimated scf accuracy    <       0.00000004 Ry

     iteration # 38     ecut=    50.00 Ry     beta= 0.30
     Davidson diagonalization with overlap
     ethr =  3.77E-12,  avg # of iterations =  2.0

     negative rho (up, down):  2.717E-03 0.000E+00

     total cpu time spent up to now is    19213.5 secs

     total energy              =  -21903.73453580 Ry
     Harris-Foulkes estimate   =  -21903.73453583 Ry
     estimated scf accuracy    <       0.00000002 Ry

     iteration # 39     ecut=    50.00 Ry     beta= 0.30
     Davidson diagonalization with overlap
     ethr =  1.88E-12,  avg # of iterations =  2.0

     negative rho (up, down):  2.715E-03 0.000E+00

     total cpu time spent up to now is    19438.1 secs

     End of self-consistent calculation

          k = 0.0000 0.0000 0.0000 ( 61453 PWs)   bands (ev):

  -107.6737-107.6598-107.6554-107.6554-107.6538-107.6523-107.6520-107.6520
  -107.6503-107.6497-107.6497-107.6494-107.6489-107.6489-107.6479-107.6479
  -107.6472-107.6464-107.6464-107.6454-107.6449-107.6429-107.6429-107.6403
  -107.6390-107.6371-107.6371-107.6363-107.6340-107.6340-107.6338-107.6338
  -107.6324-107.6317-107.6260-107.6199-107.5595-107.5569-107.5569-107.4821
  -107.4796-107.4795-107.4488-107.4463-107.4463-107.3989-107.3946-107.3946
  -107.3942-107.3929-107.3929-107.3926-107.3905-107.3905 -65.1179 -65.1093
   -65.1012 -65.1012 -65.1007 -65.1007 -65.0995 -65.0957 -65.0957 -65.0944
   -65.0929 -65.0929 -65.0919 -65.0910 -65.0910 -65.0900 -65.0888 -65.0888
   -65.0887 -65.0881 -65.0852 -65.0852 -65.0816 -65.0797 -65.0797 -65.0796
   -65.0781 -65.0781 -65.0772 -65.0760 -65.0760 -65.0753 -65.0753 -65.0746
   -65.0741 -65.0722 -65.0722 -65.0719 -65.0704 -65.0704 -65.0693 -65.0683
   -65.0678 -65.0678 -65.0663 -65.0663 -65.0651 -65.0633 -65.0633 -65.0621
   -65.0610 -65.0609 -65.0609 -65.0605 -65.0605 -65.0591 -65.0546 -65.0533
   -65.0533 -65.0529 -65.0529 -65.0518 -65.0511 -65.0511 -65.0505 -65.0503
   -65.0503 -65.0484 -65.0484 -65.0483 -65.0472 -65.0470 -65.0470 -65.0455
   -65.0429 -65.0427 -65.0427 -65.0427 -65.0421 -65.0421 -65.0412 -65.0396
   -65.0396 -65.0391 -65.0383 -65.0383 -65.0366 -65.0364 -65.0363 -65.0355
   -65.0344 -65.0344 -65.0343 -65.0341 -65.0317 -65.0317 -65.0286 -65.0286
   -65.0284 -65.0262 -65.0259 -65.0259 -65.0232 -65.0232 -65.0206 -65.0206
   -65.0160 -65.0160 -65.0002 -65.0002 -64.9968 -64.9876 -64.9744 -64.9744
   -64.9593 -64.9566 -64.9566 -64.9306 -64.9282 -64.9282 -64.9111 -64.9008
   -64.9008 -64.8988 -64.8883 -64.8883 -64.8743 -64.8659 -64.8651 -64.8651
   -64.8637 -64.8637 -64.8542 -64.8537 -64.8536 -64.8531 -64.8522 -64.8522
   -64.8502 -64.8502 -64.8502 -64.8496 -64.8293 -64.8270 -64.8270 -64.8182
   -64.8182 -64.8181 -64.8176 -64.8176 -64.8162 -64.8054 -64.8054 -64.7706
   -64.7666 -64.7666 -64.7662 -64.7649 -64.7648 -64.7642 -64.7623 -64.7623
   -13.3139 -10.5406 -10.5404  -6.9154  -6.9149  -4.9848  -3.9284  -3.3539
    -3.3233  -3.0078  -2.4287  -2.3413  -2.3412  -1.6505  -1.0754  -0.9640
    -0.9639  -0.9612  -0.9612  -0.9604  -0.9455  -0.5724  -0.5723  -0.5670
    -0.5670  -0.5596  -0.5481  -0.3957  -0.3955  -0.3152  -0.0880  -0.0880
    -0.0651  -0.0631  -0.0583  -0.0583  -0.0356   0.3490   0.3490   0.3860
     0.3898   0.3898   0.4004   0.6831   0.6831   0.7347   0.7349   0.7349
     0.7438   0.8531   0.8531   0.8655   0.8683   0.8683   0.8717   0.9027
     0.9027   0.9147   0.9147   0.9155   0.9182   0.9496   0.9496   0.9635
     0.9635   0.9654   0.9657   1.0285   1.0286   1.0611   1.0631   1.0789
     1.0789   1.0793   1.0854   1.0854   1.0897   1.1058   1.1058   1.1097
     1.1098   1.1227   1.1227   1.1498   1.1498   1.2028   1.2028   1.2849
     1.2849   1.2929   1.2963   1.2963   1.3005   1.3470   1.3470   1.3576
     1.3576   1.5301   1.5301   1.5350   1.5360   1.5637   1.5637   1.6782
     1.6782   1.6867   1.6867   1.6919   1.6919   1.6933   1.6966   1.7181
     1.7181   1.7182   1.7189   1.7408   1.7542   1.8054   1.8054   1.8066
     1.8096   1.8154   1.8154   1.8193   1.8199   1.8529   1.8529   1.8684
     1.8861   1.8870   1.8870   1.8896   1.8896   1.8939   1.9057   1.9057
     1.9378   1.9378   1.9439   1.9469   1.9469   1.9477   1.9489   1.9489
     1.9686   1.9692   1.9692   1.9714   1.9728   1.9728   1.9786   1.9786
     1.9815   2.0179   2.0197   2.0197   2.0233   2.0811   2.0811   2.0834
     2.0868   2.0868   2.0940   2.1197   2.1197   2.1310   2.1310   2.1516
     2.1520   2.1640   2.1647   2.1647   2.1707   2.1713   2.1713   2.1730
     2.1730   2.3296   2.3296   2.3353   2.3422   2.3833   2.3833   2.4123
     2.4159   2.4159   2.4230   2.4230   2.4250   2.4426   2.4426   2.4577
     2.4678   2.5021   2.5021   2.5091   2.5091   2.5207   2.5207   2.5341
     2.5343   2.5976   2.5992   2.5992   2.6077   2.6077   2.6154   2.6203
     2.6203   2.6226   2.6226   2.6437   2.6441   2.6441   2.6492   2.6528
     2.6528   2.6537   2.6537   2.6558   2.6700   2.6700   2.7231   2.7231
     2.7926   2.7942   2.7942   2.7973   2.7979   2.7979   2.8460   2.8475
     2.8475   2.8489   2.8577   2.8577   2.8585   2.8602   2.8615   2.8615
     2.8645   2.8645   2.8992   2.8992   2.9133   2.9203   2.9203   2.9247
     2.9247   2.9270   2.9367   2.9367   2.9373   2.9395   2.9402   2.9402
     2.9421   2.9484   2.9484   2.9516   2.9516   2.9546   2.9551   2.9551
     2.9861   2.9932   2.9932   3.0041   3.0041   3.0081   3.0081   3.0105
     3.0311   3.0323   3.0521   3.0521   3.0527   3.0530   3.0530   3.0555
     3.0674   3.0674   3.0771   3.0771   3.0935   3.0935   3.1036   3.1084
     3.1084   3.1095   3.1115   3.1143   3.1143   3.1172   3.1354   3.1354
     3.1388   3.1496   3.1496   3.1592   3.1968   3.1974   3.1975   3.2017
     3.2017   3.2020   3.2465   3.2465   4.0265   4.0979   4.0979   4.1148
     4.2280   4.2464   4.2464   4.7635   5.4787   5.4787   5.5359   5.6582
     5.6993   5.6993   6.6438   6.6440   6.9687   7.2752   7.3867   7.4237
     7.4238   7.5532   7.5533   7.9970   7.9970   7.9986   7.9991   8.0169
     8.0169   8.1940   8.3864   8.3864   8.4138   8.4138   8.4382   8.7601
     8.7774   8.8208   8.8956   8.8957   8.9836   9.0309   9.0404   9.3320
     9.3323   9.3323   9.5163   9.6713   9.6713   9.6976   9.6976   9.9405
     9.9480   9.9482  10.0519  10.0599  10.5332  10.5610  10.6946  10.6946
    10.7409  10.7409  10.8517  10.8517  11.0135  11.0135  11.0857  11.1026
    11.1027  11.1514  11.2147  11.3512  11.3512  11.4783  11.4789  11.4789
    11.5712  11.6196  11.6196  11.7789  11.8292  11.8293  11.9080  11.9080
    11.9784  12.0254  12.0254  12.0572  12.0854  12.0854  12.1131  12.2385
    12.2385  12.3019  12.3513  12.4110  12.4110  12.6871  12.6871  12.8055
    12.9055  12.9056  12.9275  13.0710  13.0711  13.0976  13.1026  13.1683
    13.2509  13.2697

          k = 0.0000 0.2887 0.0000 ( 61417 PWs)   bands (ev):

  -107.6737-107.6595-107.6561-107.6555-107.6539-107.6522-107.6518-107.6517
  -107.6503-107.6498-107.6498-107.6493-107.6489-107.6489-107.6480-107.6479
  -107.6473-107.6467-107.6464-107.6453-107.6450-107.6429-107.6428-107.6401
  -107.6391-107.6371-107.6371-107.6363-107.6346-107.6344-107.6335-107.6332
  -107.6322-107.6319-107.6260-107.6199-107.5595-107.5569-107.5569-107.4821
  -107.4796-107.4795-107.4488-107.4463-107.4463-107.3985-107.3956-107.3948
  -107.3942-107.3929-107.3926-107.3920-107.3907-107.3906 -65.1173 -65.1092
   -65.1039 -65.1029 -65.1022 -65.1015 -65.1010 -65.0997 -65.0984 -65.0973
   -65.0959 -65.0954 -65.0947 -65.0938 -65.0919 -65.0900 -65.0888 -65.0873
   -65.0867 -65.0860 -65.0843 -65.0841 -65.0840 -65.0829 -65.0819 -65.0816
   -65.0810 -65.0793 -65.0765 -65.0758 -65.0754 -65.0740 -65.0738 -65.0733
   -65.0725 -65.0712 -65.0710 -65.0689 -65.0685 -65.0682 -65.0666 -65.0661
   -65.0652 -65.0635 -65.0633 -65.0623 -65.0622 -65.0618 -65.0607 -65.0605
   -65.0590 -65.0588 -65.0582 -65.0575 -65.0572 -65.0557 -65.0552 -65.0551
   -65.0534 -65.0531 -65.0529 -65.0525 -65.0518 -65.0512 -65.0498 -65.0495
   -65.0485 -65.0481 -65.0470 -65.0469 -65.0462 -65.0462 -65.0450 -65.0449
   -65.0445 -65.0444 -65.0435 -65.0432 -65.0425 -65.0415 -65.0412 -65.0409
   -65.0404 -65.0395 -65.0393 -65.0390 -65.0378 -65.0373 -65.0371 -65.0363
   -65.0355 -65.0346 -65.0343 -65.0334 -65.0332 -65.0313 -65.0313 -65.0310
   -65.0297 -65.0274 -65.0274 -65.0262 -65.0246 -65.0232 -65.0229 -65.0211
   -65.0199 -65.0169 -65.0009 -65.0008 -64.9978 -64.9874 -64.9740 -64.9728
   -64.9592 -64.9566 -64.9565 -64.9301 -64.9285 -64.9273 -64.9122 -64.9030
   -64.9011 -64.8948 -64.8879 -64.8864 -64.8752 -64.8674 -64.8659 -64.8656
   -64.8646 -64.8637 -64.8637 -64.8594 -64.8589 -64.8577 -64.8573 -64.8461
   -64.8456 -64.8404 -64.8398 -64.8371 -64.8293 -64.8270 -64.8270 -64.8219
   -64.8216 -64.8206 -64.8178 -64.8172 -64.8135 -64.8096 -64.8065 -64.7702
   -64.7675 -64.7667 -64.7661 -64.7647 -64.7646 -64.7639 -64.7624 -64.7623
   -13.3131 -10.5442 -10.5411  -6.9182  -6.9106  -4.9559  -3.7156  -3.3249
    -3.1179  -3.0117  -2.4068  -2.3502  -2.2364  -2.1088  -1.6622  -1.5054
    -1.4001  -1.3873  -0.9647  -0.9257  -0.8901  -0.7451  -0.4472  -0.4056
    -0.3430  -0.3412  -0.2745  -0.2456  -0.1616  -0.1327  -0.0621  -0.0620
     0.0692   0.0997   0.1160   0.2074   0.2086   0.2131   0.3544   0.3924
     0.4118   0.4763   0.4783   0.6291   0.6714   0.7060   0.7087   0.7146
     0.7320   0.7450   0.7457   0.7570   0.7828   0.8031   0.8129   0.8146
     0.8226   0.8244   0.8662   0.8675   0.8966   0.8998   0.9183   0.9302
     0.9337   0.9689   0.9883   1.0009   1.0014   1.0123   1.0160   1.0261
     1.0292   1.0361   1.0403   1.0949   1.1138   1.1185   1.1730   1.1737
     1.1768   1.2043   1.2110   1.2199   1.2250   1.2576   1.2598   1.2868
     1.2945   1.3043   1.3613   1.3615   1.3778   1.3933   1.4065   1.4090
     1.4469   1.4493   1.4645   1.4865   1.4937   1.4950   1.5200   1.5640
     1.5652   1.5754   1.5795   1.5934   1.6217   1.6390   1.6426   1.6529
     1.6569   1.6697   1.7038   1.7045   1.7323   1.7622   1.7835   1.7875
     1.7878   1.8010   1.8023   1.8062   1.8344   1.8419   1.8498   1.8610
     1.8615   1.8705   1.8721   1.8773   1.8904   1.8964   1.9038   1.9229
     1.9334   1.9348   1.9354   1.9379   1.9426   1.9515   1.9539   1.9649
     1.9662   1.9723   1.9764   1.9773   2.0004   2.0044   2.0067   2.0116
     2.0148   2.0233   2.0233   2.0400   2.0415   2.0487   2.0511   2.0605
     2.0906   2.0943   2.1023   2.1142   2.1151   2.1179   2.1197   2.1275
     2.1369   2.1471   2.1514   2.1580   2.1651   2.1826   2.1993   2.1998
     2.2117   2.2178   2.2238   2.2342   2.2491   2.2651   2.2653   2.2852
     2.3003   2.3015   2.3300   2.3505   2.3532   2.3566   2.3606   2.3651
     2.4083   2.4354   2.4452   2.4518   2.4578   2.4642   2.4808   2.4832
     2.5128   2.5146   2.5220   2.5233   2.5264   2.5302   2.5378   2.5391
     2.5887   2.5942   2.6004   2.6016   2.6057   2.6285   2.6326   2.6342
     2.6400   2.6411   2.6674   2.6795   2.6829   2.6871   2.6951   2.6953
     2.7119   2.7121   2.7245   2.7318   2.7406   2.7410   2.7506   2.7543
     2.7602   2.7688   2.8201   2.8283   2.8320   2.8516   2.8539   2.8683
     2.8758   2.8764   2.8771   2.8790   2.8831   2.8917   2.8951   2.9019
     2.9071   2.9141   2.9191   2.9478   2.9600   2.9603   2.9624   2.9705
     2.9747   2.9822   2.9891   2.9978   3.0067   3.0070   3.0422   3.0424
     3.0566   3.0576   3.0623   3.0668   3.0722   3.0790   3.0802   3.0824
     3.0849   3.0863   3.0985   3.0987   3.1053   3.1054   3.1123   3.1183
     3.1378   3.1433   3.1456   3.1474   3.1492   3.1513   3.1524   3.1541
     3.1769   3.1864   3.1960   3.1996   3.2006   3.2129   3.2170   3.2316
     3.2413   3.3135   3.3819   3.4258   3.4572   3.4609   3.5722   3.6178
     3.6197   3.8698   3.9049   3.9226   3.9384   4.0070   4.2284   4.5095
     4.6627   4.8767   4.8999   5.1214   5.2134   5.2725   5.3517   5.9851
     5.9913   6.1812   6.2067   6.3545   6.3768   6.3814   6.5237   6.7649
     6.7719   6.9980   7.0252   7.0760   7.1876   7.2763   7.6070   7.8872
     7.9107   7.9328   8.0689   8.1837   8.3088   8.3788   8.4069   8.4800
     8.5932   8.7304   8.8558   8.8623   8.9836   9.0233   9.3073   9.3982
     9.4105   9.4976   9.5768   9.7047   9.8258   9.8860   9.8988  10.0179
    10.0553  10.1115  10.1718  10.2444  10.2919  10.4221  10.5465  10.5589
    10.5894  10.5926  10.6121  10.7242  10.7813  10.7881  10.8330  10.8799
    11.0331  11.0705  11.0794  11.1563  11.1645  11.2938  11.4679  11.4797
    11.5352  11.5740  11.6409  11.7488  11.8000  11.8684  11.8753  12.0417
    12.0919  12.1524  12.2288  12.3017  12.4161  12.4414  12.5402  12.5519
    12.5984  12.6645  12.7435  12.7955  12.8403  12.8530  12.9394  12.9680
    13.0032  13.0886  13.1464  13.1524  13.2290  13.3107  13.3843  13.4050
    13.4848  13.5537

          k = 0.0000-0.5774 0.0000 ( 61408 PWs)   bands (ev):

  -107.6736-107.6589-107.6569-107.6556-107.6540-107.6519-107.6516-107.6513
  -107.6508-107.6499-107.6498-107.6490-107.6490-107.6488-107.6479-107.6477
  -107.6474-107.6471-107.6464-107.6453-107.6450-107.6428-107.6426-107.6399
  -107.6393-107.6372-107.6372-107.6362-107.6351-107.6346-107.6334-107.6325
  -107.6324-107.6320-107.6260-107.6198-107.5594-107.5569-107.5569-107.4821
  -107.4796-107.4795-107.4489-107.4463-107.4463-107.3978-107.3967-107.3949
  -107.3944-107.3925-107.3923-107.3918-107.3908-107.3907 -65.1166 -65.1088
   -65.1068 -65.1056 -65.1044 -65.1021 -65.1012 -65.1002 -65.0995 -65.0986
   -65.0982 -65.0975 -65.0970 -65.0958 -65.0937 -65.0919 -65.0881 -65.0874
   -65.0873 -65.0860 -65.0856 -65.0850 -65.0846 -65.0844 -65.0832 -65.0815
   -65.0813 -65.0798 -65.0767 -65.0748 -65.0737 -65.0737 -65.0733 -65.0719
   -65.0715 -65.0690 -65.0673 -65.0666 -65.0651 -65.0645 -65.0644 -65.0639
   -65.0634 -65.0626 -65.0622 -65.0615 -65.0611 -65.0596 -65.0592 -65.0581
   -65.0575 -65.0568 -65.0568 -65.0565 -65.0555 -65.0548 -65.0543 -65.0535
   -65.0518 -65.0516 -65.0507 -65.0507 -65.0501 -65.0496 -65.0495 -65.0491
   -65.0485 -65.0482 -65.0479 -65.0468 -65.0465 -65.0461 -65.0449 -65.0446
   -65.0443 -65.0431 -65.0429 -65.0423 -65.0422 -65.0418 -65.0417 -65.0407
   -65.0401 -65.0398 -65.0394 -65.0392 -65.0389 -65.0385 -65.0376 -65.0372
   -65.0363 -65.0362 -65.0356 -65.0345 -65.0335 -65.0333 -65.0327 -65.0312
   -65.0310 -65.0305 -65.0289 -65.0280 -65.0268 -65.0264 -65.0253 -65.0218
   -65.0209 -65.0186 -65.0017 -65.0013 -64.9985 -64.9872 -64.9737 -64.9714
   -64.9592 -64.9565 -64.9564 -64.9313 -64.9268 -64.9264 -64.9133 -64.9046
   -64.9015 -64.8924 -64.8861 -64.8840 -64.8766 -64.8703 -64.8688 -64.8660
   -64.8659 -64.8637 -64.8637 -64.8616 -64.8612 -64.8604 -64.8600 -64.8424
   -64.8419 -64.8303 -64.8301 -64.8297 -64.8293 -64.8290 -64.8270 -64.8270
   -64.8220 -64.8217 -64.8209 -64.8185 -64.8182 -64.8100 -64.8090 -64.7695
   -64.7684 -64.7668 -64.7663 -64.7644 -64.7644 -64.7638 -64.7625 -64.7623
   -13.3123 -10.5477 -10.5419  -6.9214  -6.9058  -4.9261  -3.2958  -3.0937
    -3.0904  -3.0157  -2.5497  -2.5324  -2.3989  -2.3589  -1.8400  -1.5861
    -1.5568  -1.5554  -1.3359  -1.0549  -1.0297  -0.5444  -0.5240  -0.4158
    -0.3980  -0.3500  -0.2932   0.0560   0.2045   0.2416   0.2568   0.2597
     0.2613   0.2634   0.2662   0.3417   0.3706   0.4227   0.4245   0.4380
     0.4409   0.4565   0.4573   0.4599   0.4601   0.5078   0.5079   0.5118
     0.5119   0.6416   0.6549   0.6627   0.6749   0.6750   0.6776   0.7534
     0.8227   0.8484   0.8571   0.8581   0.8587   0.8620   0.8848   0.8939
     0.8981   0.9047   0.9049   1.0097   1.0108   1.0308   1.0310   1.0356
     1.0543   1.0767   1.0814   1.1268   1.1392   1.1396   1.1741   1.1818
     1.1921   1.1935   1.2315   1.2328   1.2889   1.2908   1.2927   1.3065
     1.3591   1.3602   1.3963   1.3977   1.4029   1.4071   1.4142   1.4319
     1.4360   1.4365   1.4671   1.5026   1.5072   1.5356   1.5384   1.5612
     1.5633   1.5735   1.5780   1.5893   1.5900   1.5954   1.5962   1.6418
     1.6455   1.6473   1.6515   1.6537   1.6657   1.7034   1.7102   1.7122
     1.7145   1.7226   1.7274   1.7287   1.7322   1.7438   1.7655   1.8069
     1.8233   1.8255   1.8265   1.8376   1.8500   1.8724   1.8740   1.8763
     1.8788   1.8788   1.8872   1.9114   1.9163   1.9268   1.9438   1.9453
     1.9507   1.9523   1.9720   1.9800   1.9832   1.9856   2.0129   2.0141
     2.0166   2.0237   2.0256   2.0379   2.0395   2.0451   2.0482   2.0658
     2.0733   2.0997   2.1153   2.1182   2.1630   2.1655   2.1723   2.1732
     2.1766   2.1775   2.1797   2.1824   2.1845   2.1910   2.2026   2.2058
     2.2086   2.2185   2.2220   2.2240   2.2253   2.2287   2.2294   2.2971
     2.3011   2.3060   2.3208   2.3529   2.3531   2.3638   2.3710   2.3810
     2.3889   2.3892   2.3925   2.4008   2.4106   2.4141   2.4321   2.4510
     2.4536   2.4575   2.4620   2.4674   2.4766   2.4914   2.4924   2.4945
     2.4982   2.5087   2.5123   2.5136   2.5182   2.5353   2.5356   2.6166
     2.6238   2.6421   2.6463   2.6646   2.6653   2.6745   2.6769   2.6974
     2.7002   2.7162   2.7314   2.7319   2.7468   2.7479   2.7552   2.7693
     2.7695   2.7814   2.7851   2.7884   2.7925   2.8036   2.8167   2.8179
     2.8289   2.8312   2.8430   2.8753   2.8755   2.8819   2.8831   2.8903
     2.8917   2.8993   2.9097   2.9332   2.9375   2.9556   2.9600   2.9727
     2.9730   2.9910   3.0010   3.0124   3.0163   3.0486   3.0486   3.0683
     3.0790   3.0858   3.0901   3.1072   3.1101   3.1108   3.1123   3.1125
     3.1139   3.1233   3.1466   3.1479   3.1482   3.1483   3.1489   3.1618
     3.1653   3.1706   3.1793   3.1872   3.1988   3.2008   3.2049   3.2082
     3.2085   3.2368   3.2460   3.2524   3.2591   3.2656   3.2665   3.2704
     3.2741   3.3107   3.3934   3.8802   3.9488   3.9663   4.0072   4.4132
     4.4740   4.4759   4.4760   4.4774   4.7251   4.7362   4.7389   4.7409
     5.0361   5.0799   5.1557   5.2128   5.2356   5.2761   5.3095   5.3419
     5.3981   5.5638   5.8896   6.0553   6.1302   6.1569   6.2385   6.2726
     6.2891   6.3334   6.3568   6.6829   6.8281   6.8789   6.9886   7.5604
     7.5860   7.6032   7.7958   7.8248   7.9981   8.3717   8.3978   8.4509
     8.7018   8.7142   8.7314   8.7843   8.9388   9.0137   9.0527   9.2298
     9.3412   9.3663   9.3696   9.3902   9.4580   9.5279   9.6153   9.7445
     9.8154   9.9215   9.9687  10.0443  10.0950  10.2410  10.3104  10.4039
    10.4144  10.5369  10.6296  10.6698  10.6938  10.7770  10.9207  11.0309
    11.0648  11.1013  11.2435  11.2669  11.2897  11.4352  11.4441  11.5101
    11.7648  11.7827  11.8648  12.0272  12.1588  12.2088  12.3002  12.3835
    12.3949  12.4193  12.4661  12.7010  12.7103  12.8114  12.8171  12.9031
    12.9341  13.0494  13.1418  13.1479  13.2393  13.3329  13.3518  13.3729
    13.4076  13.4254  13.4342  13.4647  13.5491  13.6518  13.6700  13.6971
    13.8747  13.8760

          k = 0.2500-0.7217 0.0000 ( 61343 PWs)   bands (ev):

  -107.6736-107.6589-107.6565-107.6560-107.6538-107.6520-107.6516-107.6513
  -107.6505-107.6501-107.6498-107.6493-107.6490-107.6484-107.6479-107.6477
  -107.6474-107.6469-107.6466-107.6453-107.6450-107.6428-107.6426-107.6399
  -107.6393-107.6372-107.6371-107.6361-107.6353-107.6345-107.6331-107.6328
  -107.6323-107.6320-107.6260-107.6198-107.5594-107.5569-107.5569-107.4821
  -107.4796-107.4795-107.4489-107.4463-107.4463-107.3978-107.3963-107.3957
  -107.3938-107.3925-107.3923-107.3919-107.3908-107.3906 -65.1166 -65.1086
   -65.1058 -65.1051 -65.1039 -65.1039 -65.1028 -65.1016 -65.1006 -65.0985
   -65.0979 -65.0972 -65.0943 -65.0932 -65.0923 -65.0915 -65.0909 -65.0899
   -65.0877 -65.0861 -65.0853 -65.0849 -65.0841 -65.0832 -65.0823 -65.0819
   -65.0806 -65.0795 -65.0779 -65.0770 -65.0748 -65.0728 -65.0721 -65.0715
   -65.0700 -65.0692 -65.0686 -65.0674 -65.0667 -65.0651 -65.0648 -65.0642
   -65.0636 -65.0629 -65.0618 -65.0615 -65.0598 -65.0586 -65.0580 -65.0576
   -65.0571 -65.0568 -65.0566 -65.0555 -65.0554 -65.0549 -65.0541 -65.0530
   -65.0527 -65.0521 -65.0513 -65.0513 -65.0505 -65.0497 -65.0488 -65.0486
   -65.0479 -65.0477 -65.0470 -65.0466 -65.0463 -65.0454 -65.0451 -65.0450
   -65.0447 -65.0438 -65.0433 -65.0428 -65.0424 -65.0417 -65.0415 -65.0412
   -65.0408 -65.0404 -65.0398 -65.0392 -65.0390 -65.0383 -65.0381 -65.0373
   -65.0363 -65.0356 -65.0352 -65.0345 -65.0340 -65.0330 -65.0328 -65.0326
   -65.0312 -65.0299 -65.0294 -65.0286 -65.0252 -65.0243 -65.0236 -65.0225
   -65.0223 -65.0190 -65.0016 -65.0012 -64.9988 -64.9871 -64.9736 -64.9715
   -64.9592 -64.9565 -64.9565 -64.9302 -64.9280 -64.9264 -64.9132 -64.9039
   -64.9021 -64.8912 -64.8872 -64.8846 -64.8763 -64.8695 -64.8669 -64.8666
   -64.8662 -64.8659 -64.8637 -64.8637 -64.8636 -64.8570 -64.8533 -64.8528
   -64.8337 -64.8317 -64.8307 -64.8304 -64.8293 -64.8270 -64.8270 -64.8252
   -64.8248 -64.8242 -64.8236 -64.8174 -64.8130 -64.8126 -64.8087 -64.7696
   -64.7680 -64.7675 -64.7658 -64.7644 -64.7644 -64.7639 -64.7625 -64.7623
   -13.3123 -10.5463 -10.5433  -6.9175  -6.9097  -4.9263  -3.2983  -3.2939
    -3.0155  -2.7195  -2.5052  -2.4955  -2.4172  -2.3796  -2.0113  -1.9147
    -1.8382  -1.4876  -1.0722  -0.9946  -0.6309  -0.4909  -0.4773  -0.4544
    -0.4163  -0.1400  -0.1300  -0.0984  -0.0675   0.1125   0.1139   0.1221
     0.2701   0.2838   0.3090   0.3099   0.3222   0.3748   0.3794   0.3829
     0.4034   0.4980   0.5021   0.5038   0.5045   0.5423   0.5645   0.6285
     0.6443   0.6527   0.6640   0.6971   0.6981   0.6991   0.7126   0.7141
     0.7417   0.7547   0.8071   0.8135   0.8375   0.8391   0.8658   0.8732
     0.8793   0.9195   0.9269   0.9461   0.9837   1.0063   1.0079   1.0389
     1.0642   1.1013   1.1076   1.1347   1.1537   1.1581   1.1692   1.1837
     1.2444   1.2569   1.2594   1.2638   1.2702   1.2855   1.3108   1.3303
     1.3363   1.3875   1.3896   1.4048   1.4101   1.4226   1.4300   1.4310
     1.4351   1.4845   1.4864   1.4906   1.4941   1.5049   1.5134   1.5310
     1.5346   1.5466   1.5498   1.5776   1.5843   1.5887   1.6002   1.6092
     1.6157   1.6437   1.6850   1.6886   1.6889   1.6954   1.7028   1.7155
     1.7349   1.7434   1.7588   1.7793   1.7829   1.7891   1.7921   1.7947
     1.8176   1.8220   1.8240   1.8334   1.8360   1.8676   1.8765   1.8788
     1.8853   1.8910   1.8967   1.9125   1.9138   1.9328   1.9351   1.9382
     1.9392   1.9523   1.9645   1.9695   1.9993   2.0048   2.0119   2.0180
     2.0229   2.0278   2.0384   2.0399   2.0515   2.0526   2.0567   2.0642
     2.0651   2.0732   2.0780   2.0808   2.1075   2.1152   2.1155   2.1215
     2.1463   2.1476   2.1496   2.1542   2.1580   2.1632   2.1645   2.1668
     2.1675   2.1711   2.2266   2.2281   2.2742   2.2929   2.2952   2.2976
     2.3034   2.3068   2.3196   2.3250   2.3487   2.3511   2.3646   2.3774
     2.3923   2.3949   2.4289   2.4323   2.4372   2.4562   2.4587   2.4634
     2.4667   2.4682   2.4725   2.4748   2.4774   2.4860   2.5049   2.5078
     2.5137   2.5401   2.5513   2.5535   2.5585   2.5693   2.5799   2.5973
     2.5980   2.6105   2.6198   2.6247   2.6315   2.6452   2.6720   2.6726
     2.6817   2.6876   2.6973   2.7119   2.7174   2.7404   2.7527   2.7600
     2.7682   2.7721   2.7806   2.7930   2.8064   2.8124   2.8230   2.8256
     2.8321   2.8357   2.8365   2.8400   2.8495   2.8576   2.8829   2.9009
     2.9129   2.9184   2.9230   2.9397   2.9647   2.9684   2.9816   2.9931
     3.0102   3.0295   3.0337   3.0384   3.0424   3.0479   3.0502   3.0822
     3.0829   3.0892   3.0906   3.0959   3.1042   3.1046   3.1089   3.1109
     3.1163   3.1178   3.1211   3.1227   3.1279   3.1361   3.1390   3.1464
     3.1503   3.1618   3.1629   3.1734   3.1878   3.1907   3.1986   3.2070
     3.2087   3.2242   3.2322   3.2398   3.2656   3.2855   3.2875   3.4572
     3.4920   3.5520   3.5535   3.6430   3.6497   3.8002   3.9691   3.9854
     4.3726   4.4329   4.4550   4.4599   4.4800   4.7310   4.8119   4.8478
     4.8610   4.8785   5.0892   5.2802   5.3167   5.3326   5.7842   5.7971
     5.8525   5.9704   6.0423   6.0478   6.0796   6.2319   6.2443   6.2729
     6.3824   6.6406   6.6561   6.7892   6.9299   6.9769   7.0585   7.1867
     7.2132   7.2461   7.2967   7.5353   7.6960   7.7674   8.0506   8.1165
     8.4604   8.6345   8.6451   8.7388   8.7511   8.8619   9.1343   9.1853
     9.2934   9.3732   9.4144   9.5423   9.5840   9.6105   9.7625   9.7978
     9.8463  10.0231  10.1326  10.1814  10.2078  10.4062  10.4227  10.5461
    10.5731  10.6609  10.8485  10.9068  11.0145  11.0547  11.1043  11.1685
    11.2190  11.3211  11.4130  11.5954  11.6190  11.6573  11.6932  11.7539
    11.8157  11.9089  11.9390  11.9501  12.0268  12.1051  12.1615  12.2474
    12.3121  12.3779  12.4909  12.5203  12.5648  12.6615  12.7033  12.7554
    12.7653  12.8106  12.8830  12.9236  12.9817  13.1000  13.1746  13.2097
    13.3286  13.3764  13.3985  13.4243  13.5377  13.5916  13.6668  13.7155
    13.7592  13.7842

          k =-0.2500 0.1443 0.0000 ( 61417 PWs)   bands (ev):

  -107.6737-107.6595-107.6560-107.6555-107.6539-107.6522-107.6518-107.6517
  -107.6503-107.6498-107.6498-107.6493-107.6489-107.6489-107.6480-107.6479
  -107.6473-107.6467-107.6464-107.6453-107.6450-107.6429-107.6428-107.6401
  -107.6391-107.6371-107.6371-107.6363-107.6346-107.6344-107.6335-107.6332
  -107.6322-107.6319-107.6260-107.6199-107.5595-107.5569-107.5569-107.4821
  -107.4796-107.4795-107.4488-107.4463-107.4463-107.3985-107.3956-107.3948
  -107.3942-107.3929-107.3926-107.3920-107.3907-107.3906 -65.1173 -65.1092
   -65.1039 -65.1029 -65.1022 -65.1015 -65.1010 -65.0997 -65.0984 -65.0973
   -65.0959 -65.0954 -65.0947 -65.0938 -65.0919 -65.0900 -65.0888 -65.0873
   -65.0867 -65.0860 -65.0843 -65.0841 -65.0840 -65.0829 -65.0819 -65.0816
   -65.0810 -65.0793 -65.0765 -65.0758 -65.0754 -65.0740 -65.0738 -65.0733
   -65.0725 -65.0712 -65.0710 -65.0689 -65.0685 -65.0682 -65.0666 -65.0661
   -65.0652 -65.0635 -65.0633 -65.0623 -65.0622 -65.0618 -65.0607 -65.0605
   -65.0590 -65.0588 -65.0582 -65.0575 -65.0572 -65.0557 -65.0552 -65.0551
   -65.0534 -65.0531 -65.0529 -65.0525 -65.0518 -65.0512 -65.0498 -65.0495
   -65.0485 -65.0481 -65.0470 -65.0469 -65.0462 -65.0462 -65.0450 -65.0449
   -65.0445 -65.0444 -65.0435 -65.0432 -65.0425 -65.0415 -65.0412 -65.0409
   -65.0404 -65.0395 -65.0393 -65.0390 -65.0378 -65.0373 -65.0371 -65.0363
   -65.0355 -65.0346 -65.0343 -65.0334 -65.0332 -65.0313 -65.0313 -65.0310
   -65.0297 -65.0274 -65.0274 -65.0262 -65.0246 -65.0232 -65.0229 -65.0211
   -65.0199 -65.0169 -65.0009 -65.0008 -64.9978 -64.9874 -64.9740 -64.9728
   -64.9592 -64.9566 -64.9565 -64.9301 -64.9285 -64.9273 -64.9122 -64.9030
   -64.9011 -64.8948 -64.8879 -64.8863 -64.8752 -64.8674 -64.8659 -64.8656
   -64.8646 -64.8637 -64.8637 -64.8594 -64.8589 -64.8577 -64.8573 -64.8461
   -64.8456 -64.8404 -64.8398 -64.8371 -64.8293 -64.8270 -64.8270 -64.8219
   -64.8216 -64.8206 -64.8178 -64.8172 -64.8135 -64.8096 -64.8065 -64.7702
   -64.7675 -64.7667 -64.7661 -64.7647 -64.7646 -64.7639 -64.7624 -64.7623
   -13.3131 -10.5440 -10.5414  -6.9186  -6.9102  -4.9559  -3.7156  -3.3249
    -3.1179  -3.0117  -2.4068  -2.3502  -2.2364  -2.1088  -1.6622  -1.5054
    -1.4001  -1.3873  -0.9647  -0.9257  -0.8901  -0.7451  -0.4470  -0.4058
    -0.3430  -0.3412  -0.2745  -0.2456  -0.1616  -0.1327  -0.0621  -0.0620
     0.0692   0.0997   0.1160   0.2074   0.2086   0.2131   0.3543   0.3924
     0.4118   0.4763   0.4783   0.6291   0.6714   0.7060   0.7087   0.7146
     0.7319   0.7451   0.7457   0.7570   0.7828   0.8031   0.8129   0.8146
     0.8226   0.8244   0.8662   0.8675   0.8966   0.8998   0.9183   0.9302
     0.9337   0.9689   0.9883   1.0009   1.0014   1.0123   1.0160   1.0261
     1.0292   1.0362   1.0403   1.0950   1.1137   1.1185   1.1730   1.1737
     1.1768   1.2043   1.2110   1.2199   1.2250   1.2576   1.2598   1.2868
     1.2945   1.3043   1.3613   1.3615   1.3778   1.3933   1.4065   1.4090
     1.4469   1.4493   1.4645   1.4865   1.4937   1.4950   1.5200   1.5640
     1.5652   1.5754   1.5795   1.5934   1.6217   1.6389   1.6426   1.6529
     1.6569   1.6697   1.7038   1.7045   1.7323   1.7622   1.7835   1.7875
     1.7878   1.8010   1.8023   1.8062   1.8344   1.8419   1.8498   1.8610
     1.8615   1.8705   1.8721   1.8773   1.8904   1.8964   1.9038   1.9229
     1.9334   1.9348   1.9354   1.9379   1.9426   1.9515   1.9539   1.9649
     1.9662   1.9723   1.9764   1.9773   2.0004   2.0044   2.0067   2.0116
     2.0148   2.0233   2.0233   2.0400   2.0415   2.0487   2.0511   2.0605
     2.0906   2.0943   2.1023   2.1142   2.1151   2.1179   2.1197   2.1275
     2.1369   2.1471   2.1514   2.1580   2.1651   2.1826   2.1993   2.1998
     2.2117   2.2178   2.2238   2.2342   2.2491   2.2651   2.2653   2.2852
     2.3003   2.3015   2.3300   2.3505   2.3532   2.3566   2.3606   2.3651
     2.4083   2.4354   2.4452   2.4518   2.4578   2.4642   2.4808   2.4832
     2.5128   2.5146   2.5220   2.5233   2.5264   2.5302   2.5378   2.5391
     2.5887   2.5942   2.6004   2.6016   2.6057   2.6285   2.6326   2.6342
     2.6400   2.6411   2.6674   2.6795   2.6829   2.6872   2.6951   2.6953
     2.7119   2.7121   2.7245   2.7318   2.7406   2.7410   2.7506   2.7543
     2.7602   2.7688   2.8201   2.8283   2.8320   2.8516   2.8539   2.8683
     2.8758   2.8764   2.8771   2.8790   2.8831   2.8917   2.8951   2.9019
     2.9071   2.9141   2.9191   2.9478   2.9600   2.9603   2.9624   2.9705
     2.9747   2.9822   2.9891   2.9978   3.0067   3.0070   3.0422   3.0424
     3.0566   3.0576   3.0623   3.0668   3.0722   3.0790   3.0802   3.0824
     3.0849   3.0863   3.0985   3.0987   3.1053   3.1054   3.1123   3.1183
     3.1378   3.1433   3.1456   3.1474   3.1492   3.1513   3.1524   3.1541
     3.1769   3.1864   3.1960   3.1996   3.2006   3.2129   3.2170   3.2316
     3.2413   3.3135   3.3819   3.4258   3.4572   3.4609   3.5722   3.6178
     3.6197   3.8698   3.9049   3.9225   3.9384   4.0070   4.2284   4.5095
     4.6627   4.8767   4.8999   5.1214   5.2134   5.2725   5.3517   5.9851
     5.9913   6.1813   6.2067   6.3544   6.3768   6.3814   6.5237   6.7648
     6.7720   6.9980   7.0252   7.0760   7.1876   7.2763   7.6070   7.8872
     7.9108   7.9329   8.0689   8.1838   8.3088   8.3788   8.4069   8.4800
     8.5932   8.7305   8.8558   8.8623   8.9835   9.0232   9.3073   9.3982
     9.4105   9.4976   9.5769   9.7047   9.8258   9.8859   9.8988  10.0179
    10.0552  10.1115  10.1718  10.2444  10.2918  10.4221  10.5465  10.5589
    10.5894  10.5926  10.6121  10.7242  10.7813  10.7881  10.8330  10.8799
    11.0331  11.0705  11.0794  11.1563  11.1645  11.2938  11.4679  11.4798
    11.5352  11.5739  11.6409  11.7488  11.8000  11.8684  11.8753  12.0416
    12.0919  12.1524  12.2288  12.3017  12.4162  12.4414  12.5403  12.5519
    12.5984  12.6646  12.7435  12.7955  12.8404  12.8530  12.9394  12.9680
    13.0033  13.0886  13.1464  13.1524  13.2290  13.3107  13.3842  13.4050
    13.4849  13.5536

          k = 0.2500 0.1443 0.0000 ( 61417 PWs)   bands (ev):

  -107.6737-107.6595-107.6560-107.6555-107.6539-107.6522-107.6518-107.6517
  -107.6503-107.6498-107.6498-107.6493-107.6489-107.6489-107.6480-107.6479
  -107.6473-107.6467-107.6464-107.6453-107.6450-107.6429-107.6428-107.6401
  -107.6391-107.6371-107.6371-107.6363-107.6346-107.6344-107.6335-107.6332
  -107.6322-107.6319-107.6260-107.6199-107.5595-107.5569-107.5569-107.4821
  -107.4796-107.4795-107.4488-107.4463-107.4463-107.3985-107.3956-107.3948
  -107.3942-107.3929-107.3926-107.3920-107.3907-107.3906 -65.1173 -65.1092
   -65.1039 -65.1029 -65.1022 -65.1015 -65.1010 -65.0997 -65.0984 -65.0973
   -65.0959 -65.0954 -65.0947 -65.0938 -65.0919 -65.0900 -65.0888 -65.0873
   -65.0867 -65.0860 -65.0843 -65.0841 -65.0840 -65.0829 -65.0819 -65.0816
   -65.0810 -65.0793 -65.0765 -65.0758 -65.0754 -65.0740 -65.0738 -65.0733
   -65.0725 -65.0712 -65.0710 -65.0689 -65.0685 -65.0682 -65.0666 -65.0661
   -65.0652 -65.0635 -65.0633 -65.0623 -65.0622 -65.0618 -65.0607 -65.0605
   -65.0590 -65.0588 -65.0582 -65.0575 -65.0572 -65.0557 -65.0552 -65.0551
   -65.0534 -65.0531 -65.0529 -65.0525 -65.0518 -65.0512 -65.0498 -65.0495
   -65.0485 -65.0481 -65.0470 -65.0469 -65.0462 -65.0462 -65.0450 -65.0449
   -65.0445 -65.0444 -65.0435 -65.0432 -65.0425 -65.0415 -65.0412 -65.0409
   -65.0404 -65.0395 -65.0393 -65.0390 -65.0378 -65.0373 -65.0371 -65.0363
   -65.0355 -65.0346 -65.0343 -65.0334 -65.0332 -65.0313 -65.0313 -65.0310
   -65.0297 -65.0274 -65.0274 -65.0262 -65.0246 -65.0232 -65.0229 -65.0211
   -65.0199 -65.0169 -65.0009 -65.0008 -64.9978 -64.9874 -64.9740 -64.9728
   -64.9592 -64.9566 -64.9565 -64.9301 -64.9285 -64.9273 -64.9122 -64.9030
   -64.9011 -64.8948 -64.8879 -64.8863 -64.8752 -64.8673 -64.8659 -64.8656
   -64.8646 -64.8637 -64.8637 -64.8594 -64.8589 -64.8577 -64.8573 -64.8461
   -64.8456 -64.8404 -64.8398 -64.8371 -64.8293 -64.8270 -64.8270 -64.8219
   -64.8216 -64.8206 -64.8178 -64.8172 -64.8135 -64.8096 -64.8065 -64.7702
   -64.7675 -64.7667 -64.7661 -64.7647 -64.7646 -64.7639 -64.7624 -64.7623
   -13.3131 -10.5440 -10.5413  -6.9185  -6.9102  -4.9559  -3.7156  -3.3249
    -3.1179  -3.0117  -2.4068  -2.3501  -2.2364  -2.1088  -1.6622  -1.5054
    -1.4001  -1.3873  -0.9647  -0.9257  -0.8901  -0.7451  -0.4471  -0.4057
    -0.3430  -0.3412  -0.2745  -0.2456  -0.1616  -0.1327  -0.0621  -0.0620
     0.0692   0.0997   0.1160   0.2074   0.2086   0.2131   0.3543   0.3924
     0.4118   0.4763   0.4783   0.6291   0.6714   0.7060   0.7087   0.7146
     0.7319   0.7451   0.7457   0.7570   0.7828   0.8031   0.8129   0.8146
     0.8226   0.8244   0.8662   0.8675   0.8966   0.8998   0.9183   0.9302
     0.9337   0.9689   0.9883   1.0009   1.0014   1.0123   1.0160   1.0261
     1.0292   1.0362   1.0403   1.0950   1.1138   1.1185   1.1730   1.1737
     1.1768   1.2043   1.2110   1.2199   1.2250   1.2576   1.2598   1.2868
     1.2945   1.3043   1.3613   1.3615   1.3778   1.3933   1.4065   1.4090
     1.4469   1.4493   1.4645   1.4865   1.4937   1.4950   1.5200   1.5640
     1.5652   1.5754   1.5795   1.5934   1.6217   1.6389   1.6426   1.6529
     1.6569   1.6697   1.7038   1.7045   1.7323   1.7622   1.7835   1.7875
     1.7878   1.8010   1.8023   1.8062   1.8344   1.8419   1.8498   1.8610
     1.8615   1.8705   1.8721   1.8773   1.8904   1.8964   1.9038   1.9229
     1.9334   1.9348   1.9354   1.9379   1.9426   1.9515   1.9539   1.9649
     1.9662   1.9723   1.9764   1.9773   2.0004   2.0044   2.0067   2.0116
     2.0148   2.0233   2.0233   2.0400   2.0415   2.0487   2.0511   2.0605
     2.0906   2.0943   2.1023   2.1142   2.1151   2.1179   2.1197   2.1275
     2.1369   2.1471   2.1514   2.1580   2.1651   2.1826   2.1993   2.1998
     2.2117   2.2178   2.2238   2.2342   2.2491   2.2651   2.2653   2.2852
     2.3003   2.3015   2.3300   2.3505   2.3532   2.3566   2.3606   2.3651
     2.4083   2.4354   2.4452   2.4518   2.4578   2.4642   2.4808   2.4832
     2.5128   2.5146   2.5220   2.5233   2.5264   2.5302   2.5378   2.5391
     2.5887   2.5942   2.6004   2.6016   2.6057   2.6285   2.6326   2.6342
     2.6400   2.6411   2.6674   2.6795   2.6829   2.6872   2.6951   2.6953
     2.7119   2.7121   2.7245   2.7318   2.7406   2.7410   2.7506   2.7543
     2.7602   2.7688   2.8201   2.8283   2.8320   2.8516   2.8539   2.8683
     2.8758   2.8764   2.8771   2.8790   2.8831   2.8917   2.8951   2.9019
     2.9071   2.9141   2.9191   2.9478   2.9600   2.9603   2.9624   2.9705
     2.9747   2.9822   2.9891   2.9978   3.0067   3.0070   3.0422   3.0424
     3.0566   3.0576   3.0623   3.0668   3.0722   3.0790   3.0802   3.0824
     3.0849   3.0863   3.0985   3.0987   3.1053   3.1054   3.1123   3.1183
     3.1378   3.1433   3.1456   3.1474   3.1492   3.1513   3.1524   3.1541
     3.1769   3.1864   3.1960   3.1996   3.2006   3.2129   3.2170   3.2316
     3.2413   3.3135   3.3819   3.4258   3.4572   3.4609   3.5722   3.6178
     3.6197   3.8698   3.9049   3.9225   3.9384   4.0070   4.2284   4.5095
     4.6627   4.8767   4.8999   5.1214   5.2134   5.2725   5.3517   5.9851
     5.9913   6.1813   6.2067   6.3544   6.3768   6.3814   6.5237   6.7648
     6.7720   6.9980   7.0252   7.0760   7.1876   7.2763   7.6070   7.8872
     7.9108   7.9329   8.0689   8.1838   8.3088   8.3788   8.4069   8.4800
     8.5932   8.7305   8.8558   8.8623   8.9836   9.0232   9.3073   9.3982
     9.4105   9.4976   9.5768   9.7047   9.8258   9.8859   9.8988  10.0179
    10.0552  10.1115  10.1718  10.2444  10.2918  10.4221  10.5465  10.5589
    10.5894  10.5926  10.6121  10.7242  10.7813  10.7881  10.8330  10.8799
    11.0331  11.0705  11.0794  11.1563  11.1645  11.2938  11.4679  11.4798
    11.5352  11.5739  11.6409  11.7488  11.8000  11.8684  11.8753  12.0416
    12.0919  12.1524  12.2288  12.3017  12.4162  12.4414  12.5403  12.5519
    12.5984  12.6646  12.7435  12.7955  12.8404  12.8530  12.9394  12.9680
    13.0032  13.0886  13.1464  13.1524  13.2291  13.3107  13.3842  13.4050
    13.4849  13.5536

          k = 0.5000-0.2887 0.0000 ( 61408 PWs)   bands (ev):

  -107.6736-107.6589-107.6568-107.6556-107.6540-107.6519-107.6516-107.6513
  -107.6507-107.6499-107.6498-107.6490-107.6490-107.6488-107.6479-107.6477
  -107.6474-107.6471-107.6464-107.6453-107.6450-107.6428-107.6426-107.6399
  -107.6393-107.6372-107.6372-107.6362-107.6350-107.6346-107.6334-107.6325
  -107.6324-107.6320-107.6260-107.6198-107.5594-107.5569-107.5569-107.4821
  -107.4795-107.4795-107.4489-107.4463-107.4463-107.3978-107.3967-107.3949
  -107.3944-107.3925-107.3923-107.3918-107.3908-107.3907 -65.1166 -65.1088
   -65.1068 -65.1056 -65.1044 -65.1021 -65.1012 -65.1002 -65.0995 -65.0986
   -65.0982 -65.0975 -65.0969 -65.0958 -65.0937 -65.0919 -65.0881 -65.0874
   -65.0873 -65.0860 -65.0856 -65.0850 -65.0846 -65.0844 -65.0832 -65.0815
   -65.0813 -65.0798 -65.0767 -65.0748 -65.0737 -65.0737 -65.0733 -65.0719
   -65.0715 -65.0690 -65.0673 -65.0666 -65.0651 -65.0645 -65.0644 -65.0639
   -65.0634 -65.0626 -65.0622 -65.0615 -65.0611 -65.0596 -65.0592 -65.0581
   -65.0575 -65.0568 -65.0568 -65.0565 -65.0555 -65.0548 -65.0543 -65.0535
   -65.0518 -65.0516 -65.0507 -65.0507 -65.0501 -65.0496 -65.0495 -65.0491
   -65.0485 -65.0482 -65.0479 -65.0468 -65.0465 -65.0461 -65.0449 -65.0446
   -65.0443 -65.0431 -65.0429 -65.0423 -65.0422 -65.0418 -65.0417 -65.0407
   -65.0401 -65.0398 -65.0394 -65.0392 -65.0389 -65.0385 -65.0376 -65.0372
   -65.0363 -65.0362 -65.0356 -65.0345 -65.0335 -65.0333 -65.0327 -65.0312
   -65.0310 -65.0305 -65.0289 -65.0280 -65.0268 -65.0264 -65.0253 -65.0218
   -65.0209 -65.0186 -65.0017 -65.0013 -64.9985 -64.9872 -64.9737 -64.9714
   -64.9592 -64.9566 -64.9564 -64.9312 -64.9268 -64.9264 -64.9133 -64.9047
   -64.9014 -64.8925 -64.8861 -64.8840 -64.8766 -64.8703 -64.8688 -64.8660
   -64.8659 -64.8637 -64.8637 -64.8616 -64.8612 -64.8604 -64.8601 -64.8424
   -64.8419 -64.8303 -64.8301 -64.8297 -64.8293 -64.8290 -64.8270 -64.8270
   -64.8220 -64.8217 -64.8209 -64.8185 -64.8182 -64.8100 -64.8089 -64.7695
   -64.7684 -64.7668 -64.7663 -64.7644 -64.7644 -64.7638 -64.7625 -64.7623
   -13.3123 -10.5475 -10.5421  -6.9219  -6.9053  -4.9261  -3.2958  -3.0937
    -3.0904  -3.0157  -2.5497  -2.5324  -2.3988  -2.3590  -1.8400  -1.5861
    -1.5568  -1.5554  -1.3359  -1.0549  -1.0297  -0.5444  -0.5238  -0.4157
    -0.3982  -0.3500  -0.2932   0.0560   0.2045   0.2416   0.2568   0.2598
     0.2613   0.2634   0.2662   0.3417   0.3706   0.4227   0.4245   0.4380
     0.4409   0.4565   0.4573   0.4599   0.4601   0.5078   0.5079   0.5118
     0.5119   0.6416   0.6549   0.6627   0.6749   0.6750   0.6776   0.7534
     0.8226   0.8484   0.8571   0.8581   0.8587   0.8620   0.8848   0.8939
     0.8981   0.9048   0.9049   1.0096   1.0108   1.0308   1.0310   1.0356
     1.0543   1.0767   1.0814   1.1269   1.1392   1.1396   1.1741   1.1818
     1.1921   1.1935   1.2315   1.2328   1.2889   1.2908   1.2927   1.3065
     1.3591   1.3602   1.3963   1.3977   1.4029   1.4071   1.4142   1.4319
     1.4360   1.4365   1.4671   1.5026   1.5072   1.5356   1.5384   1.5612
     1.5633   1.5735   1.5780   1.5893   1.5900   1.5954   1.5962   1.6418
     1.6455   1.6473   1.6515   1.6537   1.6657   1.7034   1.7102   1.7122
     1.7145   1.7226   1.7274   1.7287   1.7322   1.7438   1.7655   1.8069
     1.8233   1.8255   1.8265   1.8376   1.8500   1.8724   1.8740   1.8763
     1.8788   1.8788   1.8872   1.9114   1.9163   1.9267   1.9438   1.9453
     1.9507   1.9523   1.9720   1.9800   1.9832   1.9856   2.0129   2.0141
     2.0166   2.0237   2.0256   2.0379   2.0395   2.0451   2.0482   2.0658
     2.0733   2.0997   2.1153   2.1182   2.1630   2.1655   2.1723   2.1732
     2.1766   2.1776   2.1797   2.1824   2.1845   2.1910   2.2026   2.2058
     2.2086   2.2185   2.2220   2.2240   2.2253   2.2287   2.2294   2.2971
     2.3011   2.3060   2.3208   2.3529   2.3531   2.3638   2.3710   2.3810
     2.3889   2.3893   2.3925   2.4008   2.4106   2.4141   2.4321   2.4510
     2.4536   2.4575   2.4620   2.4674   2.4765   2.4914   2.4924   2.4945
     2.4982   2.5087   2.5123   2.5136   2.5182   2.5353   2.5356   2.6166
     2.6238   2.6420   2.6463   2.6646   2.6653   2.6745   2.6769   2.6974
     2.7002   2.7162   2.7314   2.7319   2.7468   2.7479   2.7552   2.7693
     2.7695   2.7814   2.7851   2.7884   2.7925   2.8036   2.8167   2.8179
     2.8289   2.8312   2.8430   2.8753   2.8755   2.8819   2.8831   2.8903
     2.8917   2.8994   2.9097   2.9332   2.9375   2.9556   2.9600   2.9727
     2.9730   2.9910   3.0010   3.0124   3.0163   3.0486   3.0486   3.0683
     3.0790   3.0858   3.0901   3.1072   3.1101   3.1108   3.1123   3.1125
     3.1139   3.1233   3.1466   3.1479   3.1482   3.1483   3.1489   3.1618
     3.1653   3.1706   3.1793   3.1872   3.1988   3.2008   3.2049   3.2082
     3.2085   3.2368   3.2460   3.2524   3.2591   3.2656   3.2665   3.2704
     3.2741   3.3107   3.3934   3.8802   3.9488   3.9663   4.0072   4.4132
     4.4740   4.4759   4.4760   4.4774   4.7251   4.7362   4.7389   4.7409
     5.0361   5.0799   5.1557   5.2128   5.2356   5.2761   5.3095   5.3419
     5.3981   5.5638   5.8896   6.0553   6.1302   6.1569   6.2385   6.2726
     6.2891   6.3334   6.3568   6.6828   6.8281   6.8789   6.9885   7.5604
     7.5860   7.6032   7.7958   7.8248   7.9979   8.3717   8.3978   8.4509
     8.7018   8.7142   8.7314   8.7843   8.9388   9.0137   9.0526   9.2297
     9.3412   9.3664   9.3696   9.3902   9.4581   9.5279   9.6153   9.7445
     9.8154   9.9215   9.9688  10.0443  10.0950  10.2410  10.3104  10.4039
    10.4144  10.5369  10.6296  10.6698  10.6938  10.7769  10.9207  11.0309
    11.0648  11.1014  11.2435  11.2669  11.2897  11.4352  11.4441  11.5102
    11.7648  11.7828  11.8648  12.0271  12.1588  12.2088  12.3004  12.3836
    12.3948  12.4193  12.4661  12.7011  12.7102  12.8113  12.8170  12.9030
    12.9340  13.0495  13.1418  13.1479  13.2393  13.3329  13.3518  13.3729
    13.4077  13.4254  13.4342  13.4647  13.5493  13.6518  13.6700  13.6968
    13.8746  13.8760

          k =-0.5000-0.2887 0.0000 ( 61408 PWs)   bands (ev):

  -107.6736-107.6589-107.6569-107.6556-107.6540-107.6519-107.6516-107.6513
  -107.6507-107.6499-107.6498-107.6490-107.6490-107.6488-107.6479-107.6477
  -107.6474-107.6471-107.6464-107.6453-107.6450-107.6428-107.6426-107.6399
  -107.6393-107.6372-107.6372-107.6362-107.6350-107.6346-107.6334-107.6325
  -107.6324-107.6320-107.6260-107.6198-107.5594-107.5569-107.5569-107.4821
  -107.4795-107.4795-107.4489-107.4463-107.4463-107.3978-107.3967-107.3949
  -107.3944-107.3925-107.3923-107.3918-107.3908-107.3907 -65.1166 -65.1088
   -65.1068 -65.1056 -65.1044 -65.1021 -65.1012 -65.1002 -65.0995 -65.0986
   -65.0982 -65.0975 -65.0970 -65.0958 -65.0937 -65.0919 -65.0881 -65.0874
   -65.0873 -65.0860 -65.0856 -65.0850 -65.0846 -65.0844 -65.0832 -65.0815
   -65.0813 -65.0798 -65.0767 -65.0748 -65.0737 -65.0737 -65.0733 -65.0719
   -65.0715 -65.0690 -65.0673 -65.0666 -65.0651 -65.0645 -65.0644 -65.0639
   -65.0634 -65.0626 -65.0622 -65.0615 -65.0611 -65.0596 -65.0592 -65.0581
   -65.0575 -65.0568 -65.0568 -65.0565 -65.0555 -65.0548 -65.0543 -65.0535
   -65.0518 -65.0516 -65.0507 -65.0507 -65.0501 -65.0496 -65.0495 -65.0491
   -65.0485 -65.0482 -65.0479 -65.0468 -65.0465 -65.0461 -65.0449 -65.0446
   -65.0443 -65.0431 -65.0429 -65.0423 -65.0422 -65.0418 -65.0417 -65.0407
   -65.0401 -65.0398 -65.0394 -65.0392 -65.0389 -65.0385 -65.0376 -65.0372
   -65.0363 -65.0362 -65.0356 -65.0345 -65.0335 -65.0333 -65.0327 -65.0312
   -65.0310 -65.0305 -65.0289 -65.0280 -65.0268 -65.0264 -65.0253 -65.0218
   -65.0209 -65.0186 -65.0017 -65.0013 -64.9985 -64.9872 -64.9737 -64.9714
   -64.9592 -64.9565 -64.9564 -64.9312 -64.9268 -64.9264 -64.9133 -64.9047
   -64.9014 -64.8925 -64.8861 -64.8839 -64.8766 -64.8703 -64.8688 -64.8660
   -64.8659 -64.8637 -64.8637 -64.8616 -64.8612 -64.8604 -64.8600 -64.8424
   -64.8419 -64.8303 -64.8301 -64.8297 -64.8293 -64.8290 -64.8270 -64.8270
   -64.8220 -64.8217 -64.8209 -64.8185 -64.8182 -64.8100 -64.8089 -64.7695
   -64.7684 -64.7668 -64.7663 -64.7644 -64.7644 -64.7638 -64.7625 -64.7623
   -13.3123 -10.5475 -10.5421  -6.9218  -6.9054  -4.9261  -3.2958  -3.0937
    -3.0904  -3.0157  -2.5497  -2.5324  -2.3989  -2.3589  -1.8400  -1.5861
    -1.5568  -1.5554  -1.3359  -1.0549  -1.0297  -0.5444  -0.5239  -0.4157
    -0.3981  -0.3500  -0.2932   0.0560   0.2045   0.2416   0.2568   0.2597
     0.2613   0.2634   0.2662   0.3417   0.3706   0.4227   0.4245   0.4380
     0.4409   0.4565   0.4573   0.4599   0.4601   0.5078   0.5079   0.5118
     0.5119   0.6416   0.6549   0.6627   0.6749   0.6750   0.6776   0.7534
     0.8226   0.8484   0.8571   0.8581   0.8587   0.8620   0.8848   0.8939
     0.8981   0.9048   0.9049   1.0096   1.0108   1.0308   1.0310   1.0356
     1.0543   1.0767   1.0814   1.1268   1.1392   1.1396   1.1741   1.1818
     1.1921   1.1935   1.2315   1.2328   1.2889   1.2908   1.2927   1.3065
     1.3591   1.3602   1.3963   1.3977   1.4029   1.4071   1.4142   1.4319
     1.4360   1.4365   1.4671   1.5026   1.5072   1.5356   1.5384   1.5612
     1.5633   1.5735   1.5780   1.5893   1.5900   1.5954   1.5962   1.6418
     1.6455   1.6473   1.6515   1.6537   1.6657   1.7034   1.7102   1.7122
     1.7145   1.7226   1.7274   1.7287   1.7322   1.7438   1.7655   1.8069
     1.8233   1.8255   1.8265   1.8376   1.8500   1.8724   1.8740   1.8763
     1.8788   1.8788   1.8872   1.9114   1.9163   1.9267   1.9438   1.9453
     1.9507   1.9523   1.9720   1.9800   1.9832   1.9856   2.0129   2.0141
     2.0166   2.0237   2.0256   2.0379   2.0395   2.0451   2.0482   2.0658
     2.0733   2.0997   2.1153   2.1182   2.1630   2.1655   2.1723   2.1732
     2.1766   2.1776   2.1797   2.1824   2.1845   2.1910   2.2026   2.2058
     2.2086   2.2185   2.2220   2.2240   2.2253   2.2287   2.2294   2.2971
     2.3011   2.3060   2.3208   2.3529   2.3531   2.3638   2.3710   2.3810
     2.3889   2.3893   2.3925   2.4008   2.4106   2.4141   2.4321   2.4510
     2.4536   2.4575   2.4620   2.4674   2.4765   2.4914   2.4924   2.4945
     2.4982   2.5087   2.5123   2.5136   2.5182   2.5353   2.5356   2.6166
     2.6238   2.6420   2.6463   2.6646   2.6653   2.6745   2.6769   2.6974
     2.7002   2.7162   2.7314   2.7319   2.7468   2.7479   2.7552   2.7693
     2.7695   2.7814   2.7851   2.7884   2.7925   2.8036   2.8168   2.8179
     2.8289   2.8312   2.8430   2.8753   2.8755   2.8819   2.8831   2.8903
     2.8917   2.8993   2.9097   2.9332   2.9375   2.9556   2.9600   2.9727
     2.9730   2.9910   3.0010   3.0124   3.0163   3.0486   3.0486   3.0683
     3.0790   3.0858   3.0901   3.1072   3.1101   3.1108   3.1123   3.1125
     3.1139   3.1233   3.1466   3.1479   3.1482   3.1483   3.1489   3.1618
     3.1653   3.1706   3.1793   3.1872   3.1988   3.2008   3.2049   3.2082
     3.2085   3.2368   3.2460   3.2524   3.2591   3.2656   3.2665   3.2704
     3.2741   3.3107   3.3934   3.8802   3.9488   3.9663   4.0072   4.4132
     4.4740   4.4759   4.4760   4.4774   4.7251   4.7362   4.7389   4.7409
     5.0361   5.0799   5.1557   5.2128   5.2356   5.2761   5.3095   5.3419
     5.3981   5.5638   5.8896   6.0553   6.1302   6.1569   6.2385   6.2726
     6.2891   6.3334   6.3568   6.6828   6.8281   6.8789   6.9885   7.5604
     7.5860   7.6032   7.7958   7.8248   7.9979   8.3717   8.3978   8.4509
     8.7018   8.7142   8.7314   8.7843   8.9388   9.0137   9.0526   9.2297
     9.3412   9.3664   9.3696   9.3902   9.4581   9.5279   9.6153   9.7445
     9.8154   9.9215   9.9688  10.0443  10.0950  10.2410  10.3104  10.4039
    10.4144  10.5369  10.6296  10.6698  10.6938  10.7769  10.9207  11.0309
    11.0648  11.1014  11.2435  11.2669  11.2897  11.4352  11.4441  11.5102
    11.7648  11.7828  11.8648  12.0271  12.1588  12.2088  12.3003  12.3836
    12.3948  12.4194  12.4661  12.7011  12.7102  12.8113  12.8171  12.9030
    12.9340  13.0495  13.1418  13.1479  13.2393  13.3329  13.3518  13.3729
    13.4077  13.4254  13.4342  13.4647  13.5493  13.6518  13.6700  13.6971
    13.8746  13.8760

          k =-0.2500-0.7217 0.0000 ( 61343 PWs)   bands (ev):

  -107.6736-107.6589-107.6565-107.6560-107.6538-107.6520-107.6516-107.6513
  -107.6505-107.6501-107.6498-107.6493-107.6490-107.6484-107.6479-107.6477
  -107.6474-107.6469-107.6466-107.6453-107.6450-107.6428-107.6426-107.6399
  -107.6393-107.6372-107.6371-107.6361-107.6353-107.6345-107.6331-107.6328
  -107.6323-107.6320-107.6260-107.6198-107.5594-107.5569-107.5569-107.4821
  -107.4796-107.4795-107.4489-107.4463-107.4463-107.3978-107.3963-107.3957
  -107.3938-107.3925-107.3923-107.3919-107.3908-107.3906 -65.1166 -65.1086
   -65.1058 -65.1051 -65.1039 -65.1039 -65.1028 -65.1016 -65.1006 -65.0985
   -65.0979 -65.0972 -65.0943 -65.0932 -65.0923 -65.0915 -65.0909 -65.0899
   -65.0877 -65.0861 -65.0853 -65.0849 -65.0841 -65.0832 -65.0823 -65.0819
   -65.0806 -65.0795 -65.0779 -65.0770 -65.0748 -65.0728 -65.0721 -65.0715
   -65.0700 -65.0692 -65.0686 -65.0674 -65.0667 -65.0651 -65.0648 -65.0642
   -65.0636 -65.0629 -65.0618 -65.0615 -65.0598 -65.0586 -65.0580 -65.0576
   -65.0571 -65.0568 -65.0565 -65.0555 -65.0554 -65.0549 -65.0541 -65.0530
   -65.0527 -65.0521 -65.0513 -65.0513 -65.0505 -65.0497 -65.0488 -65.0486
   -65.0479 -65.0477 -65.0470 -65.0466 -65.0463 -65.0454 -65.0451 -65.0450
   -65.0447 -65.0438 -65.0433 -65.0428 -65.0424 -65.0417 -65.0415 -65.0412
   -65.0408 -65.0404 -65.0398 -65.0392 -65.0390 -65.0383 -65.0381 -65.0373
   -65.0363 -65.0356 -65.0352 -65.0345 -65.0340 -65.0330 -65.0328 -65.0326
   -65.0312 -65.0299 -65.0294 -65.0286 -65.0252 -65.0243 -65.0236 -65.0225
   -65.0223 -65.0190 -65.0016 -65.0012 -64.9988 -64.9871 -64.9736 -64.9715
   -64.9592 -64.9565 -64.9565 -64.9302 -64.9280 -64.9264 -64.9132 -64.9039
   -64.9021 -64.8912 -64.8872 -64.8846 -64.8763 -64.8695 -64.8669 -64.8666
   -64.8662 -64.8659 -64.8637 -64.8637 -64.8636 -64.8570 -64.8533 -64.8528
   -64.8337 -64.8317 -64.8307 -64.8304 -64.8293 -64.8270 -64.8270 -64.8252
   -64.8248 -64.8242 -64.8236 -64.8174 -64.8130 -64.8126 -64.8087 -64.7696
   -64.7680 -64.7675 -64.7658 -64.7644 -64.7644 -64.7639 -64.7625 -64.7623
   -13.3123 -10.5462 -10.5434  -6.9175  -6.9097  -4.9263  -3.2983  -3.2939
    -3.0155  -2.7195  -2.5052  -2.4956  -2.4171  -2.3797  -2.0113  -1.9147
    -1.8382  -1.4876  -1.0722  -0.9946  -0.6309  -0.4909  -0.4773  -0.4543
    -0.4164  -0.1400  -0.1300  -0.0984  -0.0675   0.1125   0.1139   0.1221
     0.2701   0.2838   0.3090   0.3099   0.3222   0.3748   0.3794   0.3829
     0.4034   0.4980   0.5021   0.5038   0.5045   0.5423   0.5645   0.6285
     0.6443   0.6527   0.6640   0.6971   0.6981   0.6991   0.7126   0.7141
     0.7417   0.7547   0.8071   0.8135   0.8375   0.8391   0.8658   0.8732
     0.8793   0.9195   0.9269   0.9461   0.9837   1.0063   1.0079   1.0389
     1.0642   1.1013   1.1076   1.1347   1.1537   1.1581   1.1692   1.1837
     1.2444   1.2569   1.2594   1.2638   1.2702   1.2855   1.3108   1.3303
     1.3363   1.3875   1.3896   1.4048   1.4101   1.4226   1.4300   1.4310
     1.4351   1.4845   1.4864   1.4906   1.4941   1.5049   1.5134   1.5310
     1.5346   1.5466   1.5498   1.5776   1.5843   1.5887   1.6002   1.6092
     1.6157   1.6437   1.6850   1.6886   1.6889   1.6954   1.7028   1.7155
     1.7349   1.7434   1.7588   1.7793   1.7829   1.7891   1.7921   1.7947
     1.8176   1.8220   1.8240   1.8334   1.8360   1.8676   1.8765   1.8788
     1.8853   1.8910   1.8967   1.9125   1.9138   1.9328   1.9351   1.9382
     1.9392   1.9523   1.9645   1.9695   1.9993   2.0048   2.0119   2.0180
     2.0229   2.0278   2.0384   2.0399   2.0515   2.0526   2.0567   2.0642
     2.0651   2.0732   2.0780   2.0808   2.1075   2.1152   2.1155   2.1215
     2.1463   2.1476   2.1496   2.1542   2.1580   2.1632   2.1645   2.1668
     2.1675   2.1711   2.2266   2.2281   2.2742   2.2929   2.2952   2.2976
     2.3034   2.3068   2.3196   2.3250   2.3487   2.3511   2.3646   2.3774
     2.3923   2.3949   2.4289   2.4323   2.4372   2.4562   2.4587   2.4634
     2.4667   2.4682   2.4725   2.4748   2.4774   2.4860   2.5049   2.5078
     2.5137   2.5401   2.5513   2.5535   2.5585   2.5693   2.5799   2.5973
     2.5980   2.6105   2.6198   2.6247   2.6315   2.6452   2.6720   2.6726
     2.6817   2.6876   2.6973   2.7119   2.7174   2.7404   2.7527   2.7600
     2.7682   2.7721   2.7806   2.7930   2.8064   2.8124   2.8230   2.8256
     2.8321   2.8357   2.8365   2.8400   2.8495   2.8576   2.8828   2.9009
     2.9129   2.9184   2.9230   2.9397   2.9647   2.9684   2.9816   2.9931
     3.0102   3.0295   3.0337   3.0384   3.0424   3.0479   3.0502   3.0822
     3.0829   3.0892   3.0906   3.0959   3.1042   3.1046   3.1089   3.1109
     3.1163   3.1178   3.1211   3.1227   3.1279   3.1361   3.1390   3.1464
     3.1503   3.1618   3.1629   3.1734   3.1878   3.1907   3.1986   3.2070
     3.2087   3.2242   3.2322   3.2398   3.2656   3.2855   3.2875   3.4572
     3.4920   3.5520   3.5535   3.6430   3.6497   3.8002   3.9691   3.9854
     4.3726   4.4329   4.4550   4.4599   4.4800   4.7310   4.8119   4.8478
     4.8610   4.8785   5.0892   5.2802   5.3167   5.3326   5.7842   5.7971
     5.8525   5.9704   6.0423   6.0478   6.0796   6.2319   6.2443   6.2729
     6.3824   6.6406   6.6561   6.7892   6.9299   6.9769   7.0585   7.1867
     7.2132   7.2461   7.2967   7.5353   7.6960   7.7674   8.0507   8.1165
     8.4604   8.6345   8.6451   8.7388   8.7511   8.8619   9.1343   9.1853
     9.2935   9.3732   9.4144   9.5423   9.5840   9.6105   9.7625   9.7978
     9.8463  10.0231  10.1326  10.1814  10.2078  10.4062  10.4227  10.5461
    10.5731  10.6609  10.8485  10.9068  11.0145  11.0548  11.1043  11.1685
    11.2190  11.3211  11.4130  11.5954  11.6190  11.6573  11.6932  11.7539
    11.8157  11.9089  11.9390  11.9500  12.0268  12.1051  12.1615  12.2474
    12.3121  12.3778  12.4909  12.5203  12.5648  12.6615  12.7033  12.7554
    12.7653  12.8106  12.8830  12.9236  12.9817  13.1000  13.1746  13.2097
    13.3286  13.3764  13.3985  13.4244  13.5377  13.5915  13.6668  13.7156
    13.7591  13.7842

          k =-0.5000-0.5774 0.0000 ( 61343 PWs)   bands (ev):

  -107.6736-107.6589-107.6565-107.6560-107.6538-107.6520-107.6516-107.6512
  -107.6505-107.6501-107.6498-107.6493-107.6490-107.6484-107.6479-107.6477
  -107.6474-107.6469-107.6466-107.6453-107.6450-107.6428-107.6426-107.6399
  -107.6393-107.6372-107.6371-107.6361-107.6353-107.6345-107.6331-107.6328
  -107.6323-107.6320-107.6260-107.6198-107.5594-107.5569-107.5569-107.4821
  -107.4795-107.4795-107.4489-107.4463-107.4463-107.3978-107.3963-107.3957
  -107.3938-107.3925-107.3923-107.3919-107.3908-107.3906 -65.1166 -65.1086
   -65.1058 -65.1051 -65.1039 -65.1039 -65.1028 -65.1016 -65.1006 -65.0985
   -65.0979 -65.0972 -65.0943 -65.0932 -65.0923 -65.0915 -65.0909 -65.0899
   -65.0877 -65.0861 -65.0853 -65.0849 -65.0841 -65.0832 -65.0823 -65.0819
   -65.0806 -65.0795 -65.0779 -65.0770 -65.0748 -65.0728 -65.0721 -65.0715
   -65.0700 -65.0692 -65.0686 -65.0674 -65.0667 -65.0651 -65.0648 -65.0642
   -65.0636 -65.0629 -65.0618 -65.0615 -65.0598 -65.0586 -65.0580 -65.0576
   -65.0571 -65.0568 -65.0565 -65.0555 -65.0554 -65.0549 -65.0541 -65.0530
   -65.0527 -65.0521 -65.0513 -65.0513 -65.0505 -65.0497 -65.0488 -65.0486
   -65.0479 -65.0477 -65.0470 -65.0466 -65.0463 -65.0454 -65.0451 -65.0450
   -65.0447 -65.0438 -65.0433 -65.0428 -65.0424 -65.0417 -65.0415 -65.0412
   -65.0408 -65.0404 -65.0398 -65.0392 -65.0390 -65.0383 -65.0381 -65.0373
   -65.0363 -65.0356 -65.0352 -65.0345 -65.0340 -65.0330 -65.0328 -65.0326
   -65.0312 -65.0299 -65.0294 -65.0286 -65.0252 -65.0243 -65.0236 -65.0225
   -65.0223 -65.0190 -65.0016 -65.0012 -64.9988 -64.9871 -64.9736 -64.9715
   -64.9592 -64.9565 -64.9564 -64.9302 -64.9280 -64.9264 -64.9132 -64.9039
   -64.9020 -64.8912 -64.8872 -64.8846 -64.8763 -64.8695 -64.8669 -64.8666
   -64.8662 -64.8659 -64.8637 -64.8637 -64.8636 -64.8570 -64.8533 -64.8528
   -64.8337 -64.8317 -64.8307 -64.8304 -64.8293 -64.8270 -64.8270 -64.8252
   -64.8248 -64.8242 -64.8236 -64.8174 -64.8130 -64.8126 -64.8087 -64.7696
   -64.7680 -64.7675 -64.7658 -64.7644 -64.7644 -64.7639 -64.7625 -64.7623
   -13.3123 -10.5461 -10.5436  -6.9179  -6.9093  -4.9263  -3.2983  -3.2939
    -3.0155  -2.7195  -2.5052  -2.4956  -2.4171  -2.3797  -2.0113  -1.9147
    -1.8382  -1.4876  -1.0722  -0.9946  -0.6309  -0.4908  -0.4773  -0.4542
    -0.4165  -0.1400  -0.1300  -0.0984  -0.0675   0.1125   0.1139   0.1221
     0.2701   0.2838   0.3090   0.3099   0.3222   0.3748   0.3794   0.3829
     0.4034   0.4980   0.5021   0.5038   0.5045   0.5423   0.5645   0.6285
     0.6443   0.6527   0.6640   0.6971   0.6981   0.6991   0.7126   0.7141
     0.7417   0.7547   0.8071   0.8135   0.8375   0.8391   0.8658   0.8732
     0.8793   0.9195   0.9269   0.9461   0.9837   1.0063   1.0079   1.0389
     1.0642   1.1013   1.1076   1.1347   1.1537   1.1581   1.1692   1.1837
     1.2444   1.2569   1.2594   1.2638   1.2702   1.2855   1.3108   1.3303
     1.3363   1.3875   1.3896   1.4048   1.4101   1.4226   1.4300   1.4310
     1.4351   1.4845   1.4864   1.4906   1.4941   1.5049   1.5134   1.5310
     1.5346   1.5466   1.5498   1.5776   1.5843   1.5887   1.6002   1.6092
     1.6157   1.6437   1.6850   1.6886   1.6889   1.6954   1.7028   1.7155
     1.7349   1.7435   1.7588   1.7793   1.7829   1.7891   1.7921   1.7947
     1.8176   1.8219   1.8241   1.8334   1.8360   1.8676   1.8765   1.8788
     1.8853   1.8910   1.8967   1.9125   1.9138   1.9328   1.9351   1.9382
     1.9392   1.9523   1.9645   1.9695   1.9993   2.0048   2.0119   2.0180
     2.0229   2.0278   2.0383   2.0399   2.0515   2.0526   2.0567   2.0642
     2.0651   2.0732   2.0780   2.0808   2.1075   2.1152   2.1155   2.1215
     2.1463   2.1476   2.1496   2.1542   2.1580   2.1632   2.1645   2.1668
     2.1675   2.1711   2.2266   2.2281   2.2742   2.2929   2.2952   2.2976
     2.3034   2.3068   2.3196   2.3250   2.3487   2.3511   2.3646   2.3774
     2.3923   2.3949   2.4289   2.4323   2.4372   2.4562   2.4587   2.4634
     2.4667   2.4682   2.4725   2.4748   2.4774   2.4860   2.5049   2.5078
     2.5137   2.5401   2.5513   2.5535   2.5585   2.5693   2.5799   2.5973
     2.5980   2.6105   2.6198   2.6247   2.6315   2.6452   2.6720   2.6726
     2.6817   2.6876   2.6973   2.7119   2.7174   2.7404   2.7527   2.7600
     2.7682   2.7721   2.7806   2.7930   2.8064   2.8124   2.8230   2.8256
     2.8321   2.8357   2.8365   2.8400   2.8495   2.8576   2.8828   2.9009
     2.9129   2.9184   2.9230   2.9397   2.9647   2.9684   2.9816   2.9931
     3.0102   3.0295   3.0337   3.0384   3.0424   3.0479   3.0502   3.0822
     3.0829   3.0892   3.0906   3.0959   3.1042   3.1046   3.1089   3.1109
     3.1163   3.1178   3.1211   3.1227   3.1279   3.1361   3.1390   3.1464
     3.1503   3.1618   3.1629   3.1734   3.1878   3.1907   3.1986   3.2070
     3.2087   3.2242   3.2322   3.2398   3.2656   3.2855   3.2875   3.4572
     3.4920   3.5520   3.5535   3.6430   3.6497   3.8002   3.9691   3.9854
     4.3726   4.4329   4.4550   4.4599   4.4800   4.7310   4.8119   4.8478
     4.8610   4.8785   5.0892   5.2802   5.3167   5.3326   5.7842   5.7970
     5.8525   5.9704   6.0423   6.0478   6.0796   6.2319   6.2443   6.2730
     6.3824   6.6406   6.6560   6.7892   6.9298   6.9769   7.0585   7.1867
     7.2132   7.2461   7.2967   7.5353   7.6960   7.7674   8.0507   8.1165
     8.4604   8.6345   8.6451   8.7388   8.7511   8.8619   9.1343   9.1853
     9.2935   9.3732   9.4144   9.5423   9.5840   9.6105   9.7625   9.7979
     9.8463  10.0231  10.1326  10.1814  10.2078  10.4062  10.4227  10.5461
    10.5731  10.6609  10.8485  10.9068  11.0145  11.0547  11.1043  11.1685
    11.2190  11.3211  11.4131  11.5954  11.6190  11.6573  11.6932  11.7539
    11.8157  11.9089  11.9390  11.9500  12.0268  12.1051  12.1615  12.2474
    12.3122  12.3779  12.4909  12.5203  12.5648  12.6614  12.7033  12.7554
    12.7653  12.8106  12.8830  12.9235  12.9817  13.1000  13.1746  13.2097
    13.3286  13.3764  13.3985  13.4244  13.5377  13.5915  13.6668  13.7156
    13.7592  13.7842

     the Fermi energy is     4.7830 ev

!    total energy              =  -21903.73453581 Ry
     Harris-Foulkes estimate   =  -21903.73453580 Ry
     estimated scf accuracy    <          7.6E-09 Ry

     The total energy is the sum of the following terms:

     one-electron contribution = -209655.95363634 Ry
     hartree contribution      =  105036.32575231 Ry
     xc contribution           =   -2143.34678060 Ry
     ewald contribution        =   84859.29385250 Ry
     smearing contrib. (-TS)   =      -0.05372368 Ry

     convergence has been achieved in  39 iterations
 
     init_run     :     84.31s CPU     87.03s WALL (       1 calls)
     electrons    :  19006.66s CPU  19350.81s WALL (       1 calls)

     Called by init_run:
     wfcinit      :     73.16s CPU     75.16s WALL (       1 calls)
     potinit      :      7.47s CPU      7.68s WALL (       1 calls)
     hinit0       :      1.53s CPU      1.55s WALL (       1 calls)

     Called by electrons:
     c_bands      :  17775.92s CPU  18052.10s WALL (      39 calls)
     sum_band     :    918.63s CPU    958.74s WALL (      39 calls)
     v_of_rho     :    257.69s CPU    266.54s WALL (      40 calls)
     newd         :     49.80s CPU     68.96s WALL (      40 calls)
     mix_rho      :      7.39s CPU      7.53s WALL (      39 calls)

     Called by c_bands:
     init_us_2    :     17.63s CPU     17.73s WALL (     790 calls)
     cegterg      :  17652.08s CPU  17923.10s WALL (     390 calls)

     Called by sum_band:
     sum_band:bec :      3.06s CPU      3.08s WALL (     390 calls)
     addusdens    :     41.05s CPU     64.62s WALL (      39 calls)

     Called by *egterg:
     h_psi        :   3993.00s CPU   4083.62s WALL (    2062 calls)
     s_psi        :    395.59s CPU    395.93s WALL (    2062 calls)
     g_psi        :      6.95s CPU      6.99s WALL (    1662 calls)
     cdiaghg      :  10739.56s CPU  10820.22s WALL (    2052 calls)

     Called by h_psi:
     h_psi:pot    :   3982.49s CPU   4054.75s WALL (    2062 calls)
     h_psi:calbec :    584.39s CPU    585.48s WALL (    2062 calls)
     vloc_psi     :   3001.04s CPU   3071.28s WALL (    2062 calls)
     add_vuspsi   :    397.02s CPU    397.97s WALL (    2062 calls)

     General routines
     calbec       :    787.02s CPU    788.37s WALL (    2452 calls)
     fft          :    223.06s CPU    224.91s WALL (    2519 calls)
     ffts         :      1.22s CPU      1.24s WALL (      79 calls)
     fftw         :   3291.10s CPU   3369.50s WALL ( 1541652 calls)
     interpolate  :      3.66s CPU      3.70s WALL (      40 calls)
 
     Parallel routines
     fft_scatt_xy :    325.47s CPU    328.61s WALL ( 1544250 calls)
     fft_scatt_yz :   2185.79s CPU   2247.80s WALL ( 1544250 calls)
 
     PWSCF        :     5h18m CPU       18h 5m WALL

      23h
 
   This run was terminated on:  11:54:20  25Nov2019            

=------------------------------------------------------------------------------=
   JOB DONE.
=------------------------------------------------------------------------------=
